<LesHouchesEvents version="2.0">
<header>
</header>
<init>
 11 -11  1.7500000000E+02  1.7500000000E+02 -1 -1 -1 -1 3 1
  2.7030276978E-02  7.6472692625E-05  1.0000000000E+00 1
<generator version="2.3.0">WHIZARD</generator>
<xsecinfo neve="100" totxsec="2.7030276978E-02" />
</init>
<event>
 5 1  1.0000000000E+00  3.3974108444E+02 -1.0000000000E+00  1.1780000000E-01
 11 -1 0 0 0 0  0.0000000000E+00  0.0000000000E+00  1.7500000000E+02  1.7500000000E+02  5.1099700000E-04  0.0000000000E+00  9.0000000000E+00
 -11 -1 0 0 0 0  0.0000000000E+00  0.0000000000E+00 -1.6489143494E+02  1.6489143494E+02  5.1099700000E-04  0.0000000000E+00  9.0000000000E+00
 12 1 1 2 0 0 -3.6598564720E+01 -1.0114769699E+02  1.0488714038E+01  1.0807555074E+02  0.0000000000E+00  0.0000000000E+00  9.0000000000E+00
 -12 1 1 2 0 0 -1.8951648991E+01 -1.1023038720E+01 -4.4404026675E+01  4.9521611111E+01  0.0000000000E+00  0.0000000000E+00  9.0000000000E+00
 25 1 1 2 0 0  5.5550213711E+01  1.1217073571E+02  4.4023877697E+01  1.8229427309E+02  1.2500000000E+02  0.0000000000E+00  9.0000000000E+00
<weight name="sqme_prc">4.0357043842E+19</weight>
</event>
<event>
 5 1  1.0000000000E+00  3.4999991746E+02 -1.0000000000E+00  1.1780000000E-01
 11 -1 0 0 0 0  0.0000000000E+00  0.0000000000E+00  1.7499999993E+02  1.7499999993E+02  5.1099700000E-04  0.0000000000E+00  9.0000000000E+00
 -11 -1 0 0 0 0  0.0000000000E+00  0.0000000000E+00 -1.7499991753E+02  1.7499991753E+02  5.1099700000E-04  0.0000000000E+00  9.0000000000E+00
 16 1 1 2 0 0  1.5508878236E+01 -1.9992738453E+01 -9.2514965506E+01  9.5912740226E+01  0.0000000000E+00  0.0000000000E+00  9.0000000000E+00
 -16 1 1 2 0 0  3.8760662037E+01 -5.6189820428E+01 -7.5065119303E+00  6.8673375937E+01  0.0000000000E+00  0.0000000000E+00  9.0000000000E+00
 25 1 1 2 0 0 -5.4269540273E+01  7.6182558881E+01  1.0002155984E+02  1.8541380130E+02  1.2500000000E+02  0.0000000000E+00  9.0000000000E+00
<weight name="sqme_prc">2.7222083839E+08</weight>
</event>
<event>
 5 1  1.0000000000E+00  3.3888642279E+02 -1.0000000000E+00  1.1780000000E-01
 11 -1 0 0 0 0  0.0000000000E+00  0.0000000000E+00  1.7500000000E+02  1.7500000000E+02  5.1099700000E-04  0.0000000000E+00  9.0000000000E+00
 -11 -1 0 0 0 0  0.0000000000E+00  0.0000000000E+00 -1.6406286793E+02  1.6406286793E+02  5.1099700000E-04  0.0000000000E+00  9.0000000000E+00
 16 1 1 2 0 0 -6.2175571065E+01 -3.5217121409E+01 -2.1069595010E+01  7.4498155088E+01  0.0000000000E+00  0.0000000000E+00  9.0000000000E+00
 -16 1 1 2 0 0 -2.0907531292E+01 -6.0043793357E+01  5.6572268949E+01  8.5104662619E+01  0.0000000000E+00  0.0000000000E+00  9.0000000000E+00
 25 1 1 2 0 0  8.3083102357E+01  9.5260914766E+01 -2.4565541871E+01  1.7946005023E+02  1.2500000000E+02  0.0000000000E+00  9.0000000000E+00
<weight name="sqme_prc">4.1694152502E+06</weight>
</event>
<event>
 5 1  1.0000000000E+00  3.4970425505E+02 -1.0000000000E+00  1.1780000000E-01
 11 -1 0 0 0 0  0.0000000000E+00  0.0000000000E+00  1.7470438000E+02  1.7470438001E+02  5.1099700000E-04  0.0000000000E+00  9.0000000000E+00
 -11 -1 0 0 0 0  0.0000000000E+00  0.0000000000E+00 -1.7500000000E+02  1.7500000000E+02  5.1099700000E-04  0.0000000000E+00  9.0000000000E+00
 16 1 1 2 0 0  4.1809299541E+01 -4.4818999569E+01 -6.2189049982E-01  6.1295570788E+01  0.0000000000E+00  0.0000000000E+00  9.0000000000E+00
 -16 1 1 2 0 0 -7.6426253193E+00 -4.8757346335E+01 -9.1578581567E+01  1.0403040491E+02  0.0000000000E+00  0.0000000000E+00  9.0000000000E+00
 25 1 1 2 0 0 -3.4166674222E+01  9.3576345904E+01  9.1904852074E+01  1.8437840431E+02  1.2500000000E+02  0.0000000000E+00  9.0000000000E+00
<weight name="sqme_prc">7.3369369308E+05</weight>
</event>
<event>
 5 1  1.0000000000E+00  3.1111771463E+02 -1.0000000000E+00  1.1780000000E-01
 11 -1 0 0 0 0  0.0000000000E+00  0.0000000000E+00  1.3827747479E+02  1.3827747479E+02  5.1099700000E-04  0.0000000000E+00  9.0000000000E+00
 -11 -1 0 0 0 0  0.0000000000E+00  0.0000000000E+00 -1.7500000000E+02  1.7500000000E+02  5.1099700000E-04  0.0000000000E+00  9.0000000000E+00
 12 1 1 2 0 0 -6.0300668879E+01  8.0122937288E+01 -5.1008812075E+01  1.1250668716E+02  0.0000000000E+00  0.0000000000E+00  9.0000000000E+00
 -12 1 1 2 0 0 -2.5159710054E+01 -2.3725536487E+01 -1.2913231566E+01  3.6914274219E+01  0.0000000000E+00  0.0000000000E+00  9.0000000000E+00
 25 1 1 2 0 0  8.5460378933E+01 -5.6397400801E+01  2.7199518433E+01  1.6385651341E+02  1.2500000000E+02  0.0000000000E+00  9.0000000000E+00
<weight name="sqme_prc">3.8894491939E+06</weight>
</event>
<event>
 5 1  1.0000000000E+00  3.4997455178E+02 -1.0000000000E+00  1.1780000000E-01
 11 -1 0 0 0 0  0.0000000000E+00  0.0000000000E+00  1.7499986952E+02  1.7499986952E+02  5.1099700000E-04  0.0000000000E+00  9.0000000000E+00
 -11 -1 0 0 0 0  0.0000000000E+00  0.0000000000E+00 -1.7497468317E+02  1.7497468317E+02  5.1099700000E-04  0.0000000000E+00  9.0000000000E+00
 14 1 1 2 0 0 -3.2489262932E+01 -7.4475375898E+01  1.0671403348E+02  1.3412687561E+02  0.0000000000E+00  0.0000000000E+00  9.0000000000E+00
 -14 1 1 2 0 0  2.2039809664E+01 -1.9651454657E+01 -8.1431627263E+00  3.0630768507E+01  0.0000000000E+00  0.0000000000E+00  9.0000000000E+00
 25 1 1 2 0 0  1.0449453268E+01  9.4126830555E+01 -9.8545684404E+01  1.8521690857E+02  1.2500000000E+02  0.0000000000E+00  9.0000000000E+00
<weight name="sqme_prc">9.6674673510E+02</weight>
</event>
<event>
 5 1  1.0000000000E+00  3.4950847182E+02 -1.0000000000E+00  1.1780000000E-01
 11 -1 0 0 0 0  0.0000000000E+00  0.0000000000E+00  1.7454415902E+02  1.7454415902E+02  5.1099700000E-04  0.0000000000E+00  9.0000000000E+00
 -11 -1 0 0 0 0  0.0000000000E+00  0.0000000000E+00 -1.7496456563E+02  1.7496456564E+02  5.1099700000E-04  0.0000000000E+00  9.0000000000E+00
 16 1 1 2 0 0 -7.6597921929E+01  2.0292789415E+01  5.7750976105E+01  9.8052099351E+01  0.0000000000E+00  0.0000000000E+00  9.0000000000E+00
 -16 1 1 2 0 0 -5.7225366504E+01 -9.8639458539E+00 -3.1637932225E+01  6.6128653054E+01  0.0000000000E+00  0.0000000000E+00  9.0000000000E+00
 25 1 1 2 0 0  1.3382328843E+02 -1.0428843561E+01 -2.6533450491E+01  1.8532797225E+02  1.2500000000E+02  0.0000000000E+00  9.0000000000E+00
<weight name="sqme_prc">7.3707413219E-01</weight>
</event>
<event>
 5 1  1.0000000000E+00  3.4899798139E+02 -1.0000000000E+00  1.1780000000E-01
 11 -1 0 0 0 0  0.0000000000E+00  0.0000000000E+00  1.7400889151E+02  1.7400889151E+02  5.1099700000E-04  0.0000000000E+00  9.0000000000E+00
 -11 -1 0 0 0 0  0.0000000000E+00  0.0000000000E+00 -1.7499047025E+02  1.7499047026E+02  5.1099700000E-04  0.0000000000E+00  9.0000000000E+00
 14 1 1 2 0 0  7.5397168040E+01  4.2811983645E+01 -1.9417166759E+01  8.8851703737E+01  0.0000000000E+00  0.0000000000E+00  9.0000000000E+00
 -14 1 1 2 0 0  5.8873196980E+01 -2.8624648185E+01  3.7035136132E+01  7.5213197743E+01  0.0000000000E+00  0.0000000000E+00  9.0000000000E+00
 25 1 1 2 0 0 -1.3427036502E+02 -1.4187335460E+01 -1.8599548121E+01  1.8493446028E+02  1.2500000000E+02  0.0000000000E+00  9.0000000000E+00
<weight name="sqme_prc">7.8471003333E-01</weight>
</event>
<event>
 5 1  1.0000000000E+00  3.4710960781E+02 -1.0000000000E+00  1.1780000000E-01
 11 -1 0 0 0 0  0.0000000000E+00  0.0000000000E+00  1.7499999039E+02  1.7499999039E+02  5.1099700000E-04  0.0000000000E+00  9.0000000000E+00
 -11 -1 0 0 0 0  0.0000000000E+00  0.0000000000E+00 -1.7212155207E+02  1.7212155207E+02  5.1099700000E-04  0.0000000000E+00  9.0000000000E+00
 14 1 1 2 0 0  7.3294153681E+01  3.6792291137E+01 -1.1265984994E+01  8.2780602008E+01  0.0000000000E+00  0.0000000000E+00  9.0000000000E+00
 -14 1 1 2 0 0  3.6730166011E+00  7.4440396001E+01  2.8058983830E+01  7.9637743447E+01  0.0000000000E+00  0.0000000000E+00  9.0000000000E+00
 25 1 1 2 0 0 -7.6967170282E+01 -1.1123268714E+02 -1.3914560513E+01  1.8470319700E+02  1.2500000000E+02  0.0000000000E+00  9.0000000000E+00
<weight name="sqme_prc">3.0994568781E+01</weight>
</event>
<event>
 5 1  1.0000000000E+00  3.4146205293E+02 -1.0000000000E+00  1.1780000000E-01
 11 -1 0 0 0 0  0.0000000000E+00  0.0000000000E+00  1.6656621760E+02  1.6656621760E+02  5.1099700000E-04  0.0000000000E+00  9.0000000000E+00
 -11 -1 0 0 0 0  0.0000000000E+00  0.0000000000E+00 -1.7499997189E+02  1.7499997189E+02  5.1099700000E-04  0.0000000000E+00  9.0000000000E+00
 16 1 1 2 0 0 -9.0215846223E+01 -4.3028734787E+01 -2.8531877873E+01  1.0394440332E+02  0.0000000000E+00  0.0000000000E+00  9.0000000000E+00
 -16 1 1 2 0 0 -3.5010251905E+00  2.5723791155E+00 -5.8120121484E+01  5.8282268599E+01  0.0000000000E+00  0.0000000000E+00  9.0000000000E+00
 25 1 1 2 0 0  9.3716871414E+01  4.0456355672E+01  7.8218245063E+01  1.7933951757E+02  1.2500000000E+02  0.0000000000E+00  9.0000000000E+00
<weight name="sqme_prc">2.0457801934E+01</weight>
</event>
<event>
 5 1  1.0000000000E+00  3.4953489960E+02 -1.0000000000E+00  1.1780000000E-01
 11 -1 0 0 0 0  0.0000000000E+00  0.0000000000E+00  1.7496872761E+02  1.7496872761E+02  5.1099700000E-04  0.0000000000E+00  9.0000000000E+00
 -11 -1 0 0 0 0  0.0000000000E+00  0.0000000000E+00 -1.7456640353E+02  1.7456640354E+02  5.1099700000E-04  0.0000000000E+00  9.0000000000E+00
 12 1 1 2 0 0  6.0401585558E+01 -4.2530469909E+01 -3.3649587164E+01  8.1175655987E+01  0.0000000000E+00  0.0000000000E+00  9.0000000000E+00
 -12 1 1 2 0 0  3.3396781756E+01  3.7079159726E+01 -6.5981212699E+01  8.2726836921E+01  0.0000000000E+00  0.0000000000E+00  9.0000000000E+00
 25 1 1 2 0 0 -9.3798367315E+01  5.4513101831E+00  1.0003312394E+02  1.8563263823E+02  1.2500000000E+02  0.0000000000E+00  9.0000000000E+00
<weight name="sqme_prc">2.5873946737E-01</weight>
</event>
<event>
 5 1  1.0000000000E+00  3.0472197482E+02 -1.0000000000E+00  1.1780000000E-01
 11 -1 0 0 0 0  0.0000000000E+00  0.0000000000E+00  1.7498190430E+02  1.7498190430E+02  5.1099700000E-04  0.0000000000E+00  9.0000000000E+00
 -11 -1 0 0 0 0  0.0000000000E+00  0.0000000000E+00 -1.3266440651E+02  1.3266440651E+02  5.1099700000E-04  0.0000000000E+00  9.0000000000E+00
 16 1 1 2 0 0  6.2730760121E+01  7.5559140684E+01 -2.1384617691E+01  1.0050688474E+02  0.0000000000E+00  0.0000000000E+00  9.0000000000E+00
 -16 1 1 2 0 0  2.6210001284E+01 -2.2146752774E+01  1.5816569439E+01  3.7783682914E+01  0.0000000000E+00  0.0000000000E+00  9.0000000000E+00
 25 1 1 2 0 0 -8.8940761405E+01 -5.3412387909E+01  4.7885546042E+01  1.6935574316E+02  1.2500000000E+02  0.0000000000E+00  9.0000000000E+00
<weight name="sqme_prc">8.3358055982E-03</weight>
</event>
<event>
 5 1  1.0000000000E+00  3.4923692410E+02 -1.0000000000E+00  1.1780000000E-01
 11 -1 0 0 0 0  0.0000000000E+00  0.0000000000E+00  1.7425394505E+02  1.7425394505E+02  5.1099700000E-04  0.0000000000E+00  9.0000000000E+00
 -11 -1 0 0 0 0  0.0000000000E+00  0.0000000000E+00 -1.7498374157E+02  1.7498374157E+02  5.1099700000E-04  0.0000000000E+00  9.0000000000E+00
 12 1 1 2 0 0 -4.5569733046E+01  1.9655664534E+01 -4.5803975828E+01  6.7534805248E+01  0.0000000000E+00  0.0000000000E+00  9.0000000000E+00
 -12 1 1 2 0 0  1.4958422940E+01 -4.7893987965E+01 -8.3623790826E+01  9.7521930314E+01  0.0000000000E+00  0.0000000000E+00  9.0000000000E+00
 25 1 1 2 0 0  3.0611310106E+01  2.8238323431E+01  1.2869797014E+02  1.8418095106E+02  1.2500000000E+02  0.0000000000E+00  9.0000000000E+00
<weight name="sqme_prc">6.4063800252E-02</weight>
</event>
<event>
 5 1  1.0000000000E+00  3.4998089800E+02 -1.0000000000E+00  1.1780000000E-01
 11 -1 0 0 0 0  0.0000000000E+00  0.0000000000E+00  1.7498089852E+02  1.7498089852E+02  5.1099700000E-04  0.0000000000E+00  9.0000000000E+00
 -11 -1 0 0 0 0  0.0000000000E+00  0.0000000000E+00 -1.7500000000E+02  1.7500000000E+02  5.1099700000E-04  0.0000000000E+00  9.0000000000E+00
 14 1 1 2 0 0  6.2832661576E+01 -6.0191027888E+01 -1.6306812690E+01  8.8525789118E+01  0.0000000000E+00  0.0000000000E+00  9.0000000000E+00
 -14 1 1 2 0 0  2.1587895071E+01 -3.7319982602E+01  6.2561538482E+01  7.5978710257E+01  0.0000000000E+00  0.0000000000E+00  9.0000000000E+00
 25 1 1 2 0 0 -8.4420556647E+01  9.7511010490E+01 -4.6273827268E+01  1.8547639915E+02  1.2500000000E+02  0.0000000000E+00  9.0000000000E+00
<weight name="sqme_prc">2.0132747490E+11</weight>
</event>
<event>
 5 1  1.0000000000E+00  3.4999998601E+02 -1.0000000000E+00  1.1780000000E-01
 11 -1 0 0 0 0  0.0000000000E+00  0.0000000000E+00  1.7500000000E+02  1.7500000000E+02  5.1099700000E-04  0.0000000000E+00  9.0000000000E+00
 -11 -1 0 0 0 0  0.0000000000E+00  0.0000000000E+00 -1.7499998601E+02  1.7499998601E+02  5.1099700000E-04  0.0000000000E+00  9.0000000000E+00
 14 1 1 2 0 0  1.9229063933E+01  1.7112263656E+01  6.6261242252E+01  7.1085432347E+01  0.0000000000E+00  0.0000000000E+00  9.0000000000E+00
 -14 1 1 2 0 0  8.5288341427E+01  3.7847542846E+01  3.4284237174E+00  9.3371793235E+01  0.0000000000E+00  0.0000000000E+00  9.0000000000E+00
 25 1 1 2 0 0 -1.0451740536E+02 -5.4959806502E+01 -6.9689651981E+01  1.8554276043E+02  1.2500000000E+02  0.0000000000E+00  9.0000000000E+00
<weight name="sqme_prc">1.7990488390E+11</weight>
</event>
<event>
 5 1  1.0000000000E+00  3.4999999940E+02 -1.0000000000E+00  1.1780000000E-01
 11 -1 0 0 0 0  0.0000000000E+00  0.0000000000E+00  1.7500000000E+02  1.7500000000E+02  5.1099700000E-04  0.0000000000E+00  9.0000000000E+00
 -11 -1 0 0 0 0  0.0000000000E+00  0.0000000000E+00 -1.7499999940E+02  1.7499999940E+02  5.1099700000E-04  0.0000000000E+00  9.0000000000E+00
 12 1 1 2 0 0 -1.1360528139E+01  5.3179127478E+00 -1.5817377316E+01  2.0187402526E+01  0.0000000000E+00  0.0000000000E+00  9.0000000000E+00
 -12 1 1 2 0 0 -2.5733762211E+01 -1.3353554625E+02  4.7840051838E+01  1.4416185068E+02  0.0000000000E+00  0.0000000000E+00  9.0000000000E+00
 25 1 1 2 0 0  3.7094290350E+01  1.2821763351E+02 -3.2022673927E+01  1.8565074620E+02  1.2500000000E+02  0.0000000000E+00  9.0000000000E+00
<weight name="sqme_prc">5.3623186294E+11</weight>
</event>
<event>
 5 1  1.0000000000E+00  3.4999935919E+02 -1.0000000000E+00  1.1780000000E-01
 11 -1 0 0 0 0  0.0000000000E+00  0.0000000000E+00  1.7500000000E+02  1.7500000000E+02  5.1099700000E-04  0.0000000000E+00  9.0000000000E+00
 -11 -1 0 0 0 0  0.0000000000E+00  0.0000000000E+00 -1.7499935919E+02  1.7499935920E+02  5.1099700000E-04  0.0000000000E+00  9.0000000000E+00
 16 1 1 2 0 0  7.4138073614E+00 -7.6869308949E+01  6.9610833943E+00  7.7539099040E+01  0.0000000000E+00  0.0000000000E+00  9.0000000000E+00
 -16 1 1 2 0 0  8.1552516377E+01 -2.5864588625E+01  1.3759154294E+01  8.6655087554E+01  0.0000000000E+00  0.0000000000E+00  9.0000000000E+00
 25 1 1 2 0 0 -8.8966323738E+01  1.0273389757E+02 -2.0719596884E+01  1.8580517260E+02  1.2500000000E+02  0.0000000000E+00  9.0000000000E+00
<weight name="sqme_prc">4.3374323393E+09</weight>
</event>
<event>
 5 1  1.0000000000E+00  2.6216329937E+02 -1.0000000000E+00  1.1780000000E-01
 11 -1 0 0 0 0  0.0000000000E+00  0.0000000000E+00  9.8185136478E+01  9.8185136480E+01  5.1099700000E-04  0.0000000000E+00  9.0000000000E+00
 -11 -1 0 0 0 0  0.0000000000E+00  0.0000000000E+00 -1.7500000000E+02  1.7500000000E+02  5.1099700000E-04  0.0000000000E+00  9.0000000000E+00
 12 1 1 2 0 0  3.6398169814E+01  1.5967345409E+01 -5.8165766687E+01  7.0448841718E+01  0.0000000000E+00  0.0000000000E+00  9.0000000000E+00
 -12 1 1 2 0 0 -3.1020152927E+01  5.1159309949E+01 -7.8256916254E+00  6.0338763092E+01  0.0000000000E+00  0.0000000000E+00  9.0000000000E+00
 25 1 1 2 0 0 -5.3780168867E+00 -6.7126655358E+01 -1.0823405209E+01  1.4239753167E+02  1.2500000000E+02  0.0000000000E+00  9.0000000000E+00
<weight name="sqme_prc">5.2266872596E+09</weight>
</event>
<event>
 5 1  1.0000000000E+00  3.4804519422E+02 -1.0000000000E+00  1.1780000000E-01
 11 -1 0 0 0 0  0.0000000000E+00  0.0000000000E+00  1.7500000000E+02  1.7500000000E+02  5.1099700000E-04  0.0000000000E+00  9.0000000000E+00
 -11 -1 0 0 0 0  0.0000000000E+00  0.0000000000E+00 -1.7305065317E+02  1.7305065317E+02  5.1099700000E-04  0.0000000000E+00  9.0000000000E+00
 12 1 1 2 0 0  1.4443298908E+01  1.5816431854E+01  1.3941741935E+02  1.4105312906E+02  0.0000000000E+00  0.0000000000E+00  9.0000000000E+00
 -12 1 1 2 0 0 -2.3569440471E+01 -9.6529725291E-01 -5.1596877661E+00  2.4146898367E+01  0.0000000000E+00  0.0000000000E+00  9.0000000000E+00
 25 1 1 2 0 0  9.1261415627E+00 -1.4851134601E+01 -1.3230838476E+02  1.8285062575E+02  1.2500000000E+02  0.0000000000E+00  9.0000000000E+00
<weight name="sqme_prc">5.7377896649E+06</weight>
</event>
<event>
 5 1  1.0000000000E+00  3.4988552554E+02 -1.0000000000E+00  1.1780000000E-01
 11 -1 0 0 0 0  0.0000000000E+00  0.0000000000E+00  1.7488554427E+02  1.7488554427E+02  5.1099700000E-04  0.0000000000E+00  9.0000000000E+00
 -11 -1 0 0 0 0  0.0000000000E+00  0.0000000000E+00 -1.7499999999E+02  1.7499999999E+02  5.1099700000E-04  0.0000000000E+00  9.0000000000E+00
 14 1 1 2 0 0  7.8250341686E+01  7.3796301702E-01  1.9437007455E+01  8.0631618006E+01  0.0000000000E+00  0.0000000000E+00  9.0000000000E+00
 -14 1 1 2 0 0  1.5786995186E+01 -1.5310373364E+01  8.0200027112E+01  8.3160574182E+01  0.0000000000E+00  0.0000000000E+00  9.0000000000E+00
 25 1 1 2 0 0 -9.4037336872E+01  1.4572410347E+01 -9.9751490293E+01  1.8609335207E+02  1.2500000000E+02  0.0000000000E+00  9.0000000000E+00
<weight name="sqme_prc">3.6967721816E+05</weight>
</event>
<event>
 5 1  1.0000000000E+00  3.4523177819E+02 -1.0000000000E+00  1.1780000000E-01
 11 -1 0 0 0 0  0.0000000000E+00  0.0000000000E+00  1.7499591245E+02  1.7499591245E+02  5.1099700000E-04  0.0000000000E+00  9.0000000000E+00
 -11 -1 0 0 0 0  0.0000000000E+00  0.0000000000E+00 -1.7026823512E+02  1.7026823512E+02  5.1099700000E-04  0.0000000000E+00  9.0000000000E+00
 14 1 1 2 0 0 -4.2812684100E+01 -1.2783704036E+01  2.0404608390E+01  4.9119212659E+01  0.0000000000E+00  0.0000000000E+00  9.0000000000E+00
 -14 1 1 2 0 0 -5.3849182861E+01 -3.6288615103E+01 -9.3067168489E+01  1.1348169866E+02  0.0000000000E+00  0.0000000000E+00  9.0000000000E+00
 25 1 1 2 0 0  9.6661866961E+01  4.9072319140E+01  7.7390237429E+01  1.8266323626E+02  1.2500000000E+02  0.0000000000E+00  9.0000000000E+00
<weight name="sqme_prc">2.4413559831E-02</weight>
</event>
<event>
 5 1  1.0000000000E+00  3.2065410313E+02 -1.0000000000E+00  1.1780000000E-01
 11 -1 0 0 0 0  0.0000000000E+00  0.0000000000E+00  1.5727182086E+02  1.5727182086E+02  5.1099700000E-04  0.0000000000E+00  9.0000000000E+00
 -11 -1 0 0 0 0  0.0000000000E+00  0.0000000000E+00 -1.6344163451E+02  1.6344163451E+02  5.1099700000E-04  0.0000000000E+00  9.0000000000E+00
 14 1 1 2 0 0  8.4878720445E+01  1.7386782373E+01 -4.6123595782E+01  9.8153367103E+01  0.0000000000E+00  0.0000000000E+00  9.0000000000E+00
 -14 1 1 2 0 0  2.8842811857E+01  1.5252297373E+01  3.8467091701E+01  5.0440633569E+01  0.0000000000E+00  0.0000000000E+00  9.0000000000E+00
 25 1 1 2 0 0 -1.1372153230E+02 -3.2639079746E+01  1.4866904330E+00  1.7211945469E+02  1.2500000000E+02  0.0000000000E+00  9.0000000000E+00
<weight name="sqme_prc">2.3310917010E-05</weight>
</event>
<event>
 5 1  1.0000000000E+00  3.4121115634E+02 -1.0000000000E+00  1.1780000000E-01
 11 -1 0 0 0 0  0.0000000000E+00  0.0000000000E+00  1.6632150540E+02  1.6632150540E+02  5.1099700000E-04  0.0000000000E+00  9.0000000000E+00
 -11 -1 0 0 0 0  0.0000000000E+00  0.0000000000E+00 -1.7499999915E+02  1.7499999915E+02  5.1099700000E-04  0.0000000000E+00  9.0000000000E+00
 14 1 1 2 0 0 -1.7865647613E+01 -8.5116278776E+01  3.9189488695E+01  9.5392758118E+01  0.0000000000E+00  0.0000000000E+00  9.0000000000E+00
 -14 1 1 2 0 0 -7.4284710697E+00 -5.1940331799E+01 -2.2163061477E+01  5.6957717158E+01  0.0000000000E+00  0.0000000000E+00  9.0000000000E+00
 25 1 1 2 0 0  2.5294118683E+01  1.3705661057E+02 -2.5704920973E+01  1.8897102927E+02  1.2500000000E+02  0.0000000000E+00  9.0000000000E+00
<weight name="sqme_prc">1.7030251096E+00</weight>
</event>
<event>
 5 1  1.0000000000E+00  3.4948178047E+02 -1.0000000000E+00  1.1780000000E-01
 11 -1 0 0 0 0  0.0000000000E+00  0.0000000000E+00  1.7448216671E+02  1.7448216671E+02  5.1099700000E-04  0.0000000000E+00  9.0000000000E+00
 -11 -1 0 0 0 0  0.0000000000E+00  0.0000000000E+00 -1.7499999739E+02  1.7499999739E+02  5.1099700000E-04  0.0000000000E+00  9.0000000000E+00
 12 1 1 2 0 0  1.9833391759E+01  2.8979347212E+01  1.0095410284E+01  3.6538791747E+01  0.0000000000E+00  0.0000000000E+00  9.0000000000E+00
 -12 1 1 2 0 0  9.0677679476E+01 -6.6965067855E+01  6.0155358918E+01  1.2777100248E+02  0.0000000000E+00  0.0000000000E+00  9.0000000000E+00
 25 1 1 2 0 0 -1.1051107124E+02  3.7985720642E+01 -7.0768599883E+01  1.8517236988E+02  1.2500000000E+02  0.0000000000E+00  9.0000000000E+00
<weight name="sqme_prc">1.7718427278E+03</weight>
</event>
<event>
 5 1  1.0000000000E+00  3.2553563237E+02 -1.0000000000E+00  1.1780000000E-01
 11 -1 0 0 0 0  0.0000000000E+00  0.0000000000E+00  1.5139064446E+02  1.5139064446E+02  5.1099700000E-04  0.0000000000E+00  9.0000000000E+00
 -11 -1 0 0 0 0  0.0000000000E+00  0.0000000000E+00 -1.7499999475E+02  1.7499999475E+02  5.1099700000E-04  0.0000000000E+00  9.0000000000E+00
 14 1 1 2 0 0  1.2629998192E+00  1.1303304051E+01  1.9761349907E+01  2.2800675454E+01  0.0000000000E+00  0.0000000000E+00  9.0000000000E+00
 -14 1 1 2 0 0  5.4351273954E+01 -1.1597430811E+02 -1.3977755049E+01  1.2883896444E+02  0.0000000000E+00  0.0000000000E+00  9.0000000000E+00
 25 1 1 2 0 0 -5.5614273774E+01  1.0467100406E+02 -2.9392945146E+01  1.7475099932E+02  1.2500000000E+02  0.0000000000E+00  9.0000000000E+00
<weight name="sqme_prc">3.7345248942E+00</weight>
</event>
<event>
 5 1  1.0000000000E+00  3.5000000000E+02 -1.0000000000E+00  1.1780000000E-01
 11 -1 0 0 0 0  0.0000000000E+00  0.0000000000E+00  1.7500000000E+02  1.7500000000E+02  5.1099700000E-04  0.0000000000E+00  9.0000000000E+00
 -11 -1 0 0 0 0  0.0000000000E+00  0.0000000000E+00 -1.7500000000E+02  1.7500000000E+02  5.1099700000E-04  0.0000000000E+00  9.0000000000E+00
 14 1 1 2 0 0  1.2782731497E+02 -5.7946768089E-01  1.6693980358E+01  1.2891410790E+02  0.0000000000E+00  0.0000000000E+00  9.0000000000E+00
 -14 1 1 2 0 0  8.6272319276E+00 -5.0741819907E+00 -3.3711075454E+01  3.5165509550E+01  0.0000000000E+00  0.0000000000E+00  9.0000000000E+00
 25 1 1 2 0 0 -1.3645454690E+02  5.6536496716E+00  1.7017095097E+01  1.8592038255E+02  1.2500000000E+02  0.0000000000E+00  9.0000000000E+00
<weight name="sqme_prc">3.3150891498E+19</weight>
</event>
<event>
 5 1  1.0000000000E+00  3.4986656455E+02 -1.0000000000E+00  1.1780000000E-01
 11 -1 0 0 0 0  0.0000000000E+00  0.0000000000E+00  1.7499675070E+02  1.7499675070E+02  5.1099700000E-04  0.0000000000E+00  9.0000000000E+00
 -11 -1 0 0 0 0  0.0000000000E+00  0.0000000000E+00 -1.7486983687E+02  1.7486983688E+02  5.1099700000E-04  0.0000000000E+00  9.0000000000E+00
 16 1 1 2 0 0  2.4285824246E+01  2.7057863731E+01  4.7865853024E+01  6.0108810791E+01  0.0000000000E+00  0.0000000000E+00  9.0000000000E+00
 -16 1 1 2 0 0  3.0491321621E+01  9.6358229422E+01 -2.6848434128E+01  1.0457278559E+02  0.0000000000E+00  0.0000000000E+00  9.0000000000E+00
 25 1 1 2 0 0 -5.4777145867E+01 -1.2341609315E+02 -2.0890505074E+01  1.8518499119E+02  1.2500000000E+02  0.0000000000E+00  9.0000000000E+00
<weight name="sqme_prc">1.6394325979E+01</weight>
</event>
<event>
 5 1  1.0000000000E+00  3.4024973179E+02 -1.0000000000E+00  1.1780000000E-01
 11 -1 0 0 0 0  0.0000000000E+00  0.0000000000E+00  1.6538605648E+02  1.6538605648E+02  5.1099700000E-04  0.0000000000E+00  9.0000000000E+00
 -11 -1 0 0 0 0  0.0000000000E+00  0.0000000000E+00 -1.7499945649E+02  1.7499945649E+02  5.1099700000E-04  0.0000000000E+00  9.0000000000E+00
 14 1 1 2 0 0  4.4694389235E+01 -6.9227465173E+01  3.2797661968E+01  8.8688877510E+01  0.0000000000E+00  0.0000000000E+00  9.0000000000E+00
 -14 1 1 2 0 0 -1.1450938916E+01 -6.1698484708E+01 -2.2129373058E+01  6.6539733763E+01  0.0000000000E+00  0.0000000000E+00  9.0000000000E+00
 25 1 1 2 0 0 -3.3243450319E+01  1.3092594988E+02 -2.0281688916E+01  1.8515690170E+02  1.2500000000E+02  0.0000000000E+00  9.0000000000E+00
<weight name="sqme_prc">1.3014423243E-02</weight>
</event>
<event>
 5 1  1.0000000000E+00  3.3953906697E+02 -1.0000000000E+00  1.1780000000E-01
 11 -1 0 0 0 0  0.0000000000E+00  0.0000000000E+00  1.6469539714E+02  1.6469539714E+02  5.1099700000E-04  0.0000000000E+00  9.0000000000E+00
 -11 -1 0 0 0 0  0.0000000000E+00  0.0000000000E+00 -1.7500000000E+02  1.7500000000E+02  5.1099700000E-04  0.0000000000E+00  9.0000000000E+00
 14 1 1 2 0 0  3.2413287486E+01 -4.2528774992E+01  3.9489762065E+01  6.6473748322E+01  0.0000000000E+00  0.0000000000E+00  9.0000000000E+00
 -14 1 1 2 0 0 -4.1770640484E+01  1.4673784659E-01  7.8496997016E+01  8.8918988293E+01  0.0000000000E+00  0.0000000000E+00  9.0000000000E+00
 25 1 1 2 0 0  9.3573529987E+00  4.2382037146E+01 -1.2829136194E+02  1.8430266053E+02  1.2500000000E+02  0.0000000000E+00  9.0000000000E+00
<weight name="sqme_prc">1.0071230045E+11</weight>
</event>
<event>
 5 1  1.0000000000E+00  3.4999910665E+02 -1.0000000000E+00  1.1780000000E-01
 11 -1 0 0 0 0  0.0000000000E+00  0.0000000000E+00  1.7500000000E+02  1.7500000000E+02  5.1099700000E-04  0.0000000000E+00  9.0000000000E+00
 -11 -1 0 0 0 0  0.0000000000E+00  0.0000000000E+00 -1.7499910665E+02  1.7499910665E+02  5.1099700000E-04  0.0000000000E+00  9.0000000000E+00
 16 1 1 2 0 0  1.9928084001E+01 -3.8146906873E+00  1.1514982430E+02  1.1692374623E+02  0.0000000000E+00  0.0000000000E+00  9.0000000000E+00
 -16 1 1 2 0 0 -4.0380061763E+01 -4.8856318840E+01 -2.1298540771E+01  6.6866412477E+01  0.0000000000E+00  0.0000000000E+00  9.0000000000E+00
 25 1 1 2 0 0  2.0451977762E+01  5.2671009527E+01 -9.3850390177E+01  1.6620894794E+02  1.2500000000E+02  0.0000000000E+00  9.0000000000E+00
<weight name="sqme_prc">4.8267593962E+15</weight>
</event>
<event>
 5 1  1.0000000000E+00  2.5397279269E+02 -1.0000000000E+00  1.1780000000E-01
 11 -1 0 0 0 0  0.0000000000E+00  0.0000000000E+00  9.2147316873E+01  9.2147316875E+01  5.1099700000E-04  0.0000000000E+00  9.0000000000E+00
 -11 -1 0 0 0 0  0.0000000000E+00  0.0000000000E+00 -1.7499744327E+02  1.7499744327E+02  5.1099700000E-04  0.0000000000E+00  9.0000000000E+00
 12 1 1 2 0 0 -2.6631484378E+01  6.2384521543E+01 -3.1328791542E+01  7.4716515362E+01  0.0000000000E+00  0.0000000000E+00  9.0000000000E+00
 -12 1 1 2 0 0 -2.2292727587E+01 -2.5059464414E+01  1.6505921235E+01  3.7381651860E+01  0.0000000000E+00  0.0000000000E+00  9.0000000000E+00
 25 1 1 2 0 0  4.8924211965E+01 -3.7325057129E+01 -6.8027256089E+01  1.5504659292E+02  1.2500000000E+02  0.0000000000E+00  9.0000000000E+00
<weight name="sqme_prc">1.2357997493E-02</weight>
</event>
<event>
 5 1  1.0000000000E+00  3.0054931288E+02 -1.0000000000E+00  1.1780000000E-01
 11 -1 0 0 0 0  0.0000000000E+00  0.0000000000E+00  1.7286697755E+02  1.7286697755E+02  5.1099700000E-04  0.0000000000E+00  9.0000000000E+00
 -11 -1 0 0 0 0  0.0000000000E+00  0.0000000000E+00 -1.3063496966E+02  1.3063496966E+02  5.1099700000E-04  0.0000000000E+00  9.0000000000E+00
 12 1 1 2 0 0  5.8891245728E+01 -4.3819026905E+01 -1.7750740564E+00  7.3426404176E+01  0.0000000000E+00  0.0000000000E+00  9.0000000000E+00
 -12 1 1 2 0 0  1.5509683341E+01 -1.0137745262E+01  7.0310208169E+01  7.2710724994E+01  0.0000000000E+00  0.0000000000E+00  9.0000000000E+00
 25 1 1 2 0 0 -7.4400929069E+01  5.3956772168E+01 -2.6303126221E+01  1.5736481804E+02  1.2500000000E+02  0.0000000000E+00  9.0000000000E+00
<weight name="sqme_prc">9.0570437040E-05</weight>
</event>
<event>
 5 1  1.0000000000E+00  3.4999999272E+02 -1.0000000000E+00  1.1780000000E-01
 11 -1 0 0 0 0  0.0000000000E+00  0.0000000000E+00  1.7499999271E+02  1.7499999272E+02  5.1099700000E-04  0.0000000000E+00  9.0000000000E+00
 -11 -1 0 0 0 0  0.0000000000E+00  0.0000000000E+00 -1.7500000000E+02  1.7500000000E+02  5.1099700000E-04  0.0000000000E+00  9.0000000000E+00
 16 1 1 2 0 0  7.8946685960E+01  3.4219031717E+01 -2.8786983289E+01  9.0731536759E+01  0.0000000000E+00  0.0000000000E+00  9.0000000000E+00
 -16 1 1 2 0 0 -1.2737099101E+01  3.9905551268E+01 -6.2562027643E+01  7.5290729963E+01  0.0000000000E+00  0.0000000000E+00  9.0000000000E+00
 25 1 1 2 0 0 -6.6209586858E+01 -7.4124582985E+01  9.1349003648E+01  1.8397772599E+02  1.2500000000E+02  0.0000000000E+00  9.0000000000E+00
<weight name="sqme_prc">6.6190243735E+11</weight>
</event>
<event>
 5 1  1.0000000000E+00  3.4967496586E+02 -1.0000000000E+00  1.1780000000E-01
 11 -1 0 0 0 0  0.0000000000E+00  0.0000000000E+00  1.7500000000E+02  1.7500000000E+02  5.1099700000E-04  0.0000000000E+00  9.0000000000E+00
 -11 -1 0 0 0 0  0.0000000000E+00  0.0000000000E+00 -1.7467511678E+02  1.7467511678E+02  5.1099700000E-04  0.0000000000E+00  9.0000000000E+00
 14 1 1 2 0 0 -1.7170475152E+01 -4.8114550373E+01  4.2968513983E+01  6.6754238580E+01  0.0000000000E+00  0.0000000000E+00  9.0000000000E+00
 -14 1 1 2 0 0 -9.2583570921E+01  7.0726888835E+00  2.8903816404E+01  9.7247987821E+01  0.0000000000E+00  0.0000000000E+00  9.0000000000E+00
 25 1 1 2 0 0  1.0975404607E+02  4.1041861490E+01 -7.1547447175E+01  1.8567289038E+02  1.2500000000E+02  0.0000000000E+00  9.0000000000E+00
<weight name="sqme_prc">7.1037873251E+05</weight>
</event>
<event>
 5 1  1.0000000000E+00  3.1300764559E+02 -1.0000000000E+00  1.1780000000E-01
 11 -1 0 0 0 0  0.0000000000E+00  0.0000000000E+00  1.3996255171E+02  1.3996255171E+02  5.1099700000E-04  0.0000000000E+00  9.0000000000E+00
 -11 -1 0 0 0 0  0.0000000000E+00  0.0000000000E+00 -1.7500000000E+02  1.7500000000E+02  5.1099700000E-04  0.0000000000E+00  9.0000000000E+00
 12 1 1 2 0 0 -1.1658046522E+01  2.6407378277E+01 -1.3785059664E+01  3.1988865971E+01  0.0000000000E+00  0.0000000000E+00  9.0000000000E+00
 -12 1 1 2 0 0  8.8387746436E+01 -9.6881876155E+00 -8.4231711143E+01  1.2247953242E+02  0.0000000000E+00  0.0000000000E+00  9.0000000000E+00
 25 1 1 2 0 0 -7.6729699914E+01 -1.6719190662E+01  6.2979322517E+01  1.6049415332E+02  1.2500000000E+02  0.0000000000E+00  9.0000000000E+00
<weight name="sqme_prc">3.2852421317E+05</weight>
</event>
<event>
 5 1  1.0000000000E+00  3.4999571840E+02 -1.0000000000E+00  1.1780000000E-01
 11 -1 0 0 0 0  0.0000000000E+00  0.0000000000E+00  1.7499571843E+02  1.7499571843E+02  5.1099700000E-04  0.0000000000E+00  9.0000000000E+00
 -11 -1 0 0 0 0  0.0000000000E+00  0.0000000000E+00 -1.7500000000E+02  1.7500000000E+02  5.1099700000E-04  0.0000000000E+00  9.0000000000E+00
 12 1 1 2 0 0  6.2256246431E+01 -7.9064101491E+01 -7.1225765693E+01  1.2328861287E+02  0.0000000000E+00  0.0000000000E+00  9.0000000000E+00
 -12 1 1 2 0 0  3.4164728320E+01 -5.2277043360E+00  2.2469819655E+01  4.1224390222E+01  0.0000000000E+00  0.0000000000E+00  9.0000000000E+00
 25 1 1 2 0 0 -9.6420974751E+01  8.4291805827E+01  4.8751664465E+01  1.8548271534E+02  1.2500000000E+02  0.0000000000E+00  9.0000000000E+00
<weight name="sqme_prc">1.4360740793E+16</weight>
</event>
<event>
 5 1  1.0000000000E+00  3.0976440050E+02 -1.0000000000E+00  1.1780000000E-01
 11 -1 0 0 0 0  0.0000000000E+00  0.0000000000E+00  1.3707712426E+02  1.3707712426E+02  5.1099700000E-04  0.0000000000E+00  9.0000000000E+00
 -11 -1 0 0 0 0  0.0000000000E+00  0.0000000000E+00 -1.7499999423E+02  1.7499999423E+02  5.1099700000E-04  0.0000000000E+00  9.0000000000E+00
 16 1 1 2 0 0  9.4226357220E+01 -3.8708030278E+01 -4.5371491074E+01  1.1151452912E+02  0.0000000000E+00  0.0000000000E+00  9.0000000000E+00
 -16 1 1 2 0 0  2.1553635496E+00  3.1289990078E+01 -2.3941519765E+01  3.9457641082E+01  0.0000000000E+00  0.0000000000E+00  9.0000000000E+00
 25 1 1 2 0 0 -9.6381720770E+01  7.4180402001E+00  3.1390140863E+01  1.6110494829E+02  1.2500000000E+02  0.0000000000E+00  9.0000000000E+00
<weight name="sqme_prc">5.3308751597E+00</weight>
</event>
<event>
 5 1  1.0000000000E+00  3.4999999955E+02 -1.0000000000E+00  1.1780000000E-01
 11 -1 0 0 0 0  0.0000000000E+00  0.0000000000E+00  1.7499999955E+02  1.7499999955E+02  5.1099700000E-04  0.0000000000E+00  9.0000000000E+00
 -11 -1 0 0 0 0  0.0000000000E+00  0.0000000000E+00 -1.7500000000E+02  1.7500000000E+02  5.1099700000E-04  0.0000000000E+00  9.0000000000E+00
 12 1 1 2 0 0 -8.3779380980E+01  2.3377969291E+01 -4.0655847254E+01  9.6012561895E+01  0.0000000000E+00  0.0000000000E+00  9.0000000000E+00
 -12 1 1 2 0 0 -5.5048416168E+00 -2.4022650553E+01 -6.3685721129E+01  6.8288081658E+01  0.0000000000E+00  0.0000000000E+00  9.0000000000E+00
 25 1 1 2 0 0  8.9284222597E+01  6.4468126185E-01  1.0434156793E+02  1.8569935600E+02  1.2500000000E+02  0.0000000000E+00  9.0000000000E+00
<weight name="sqme_prc">1.4964363093E+27</weight>
</event>
<event>
 5 1  1.0000000000E+00  3.4999999999E+02 -1.0000000000E+00  1.1780000000E-01
 11 -1 0 0 0 0  0.0000000000E+00  0.0000000000E+00  1.7500000000E+02  1.7500000000E+02  5.1099700000E-04  0.0000000000E+00  9.0000000000E+00
 -11 -1 0 0 0 0  0.0000000000E+00  0.0000000000E+00 -1.7499999999E+02  1.7499999999E+02  5.1099700000E-04  0.0000000000E+00  9.0000000000E+00
 14 1 1 2 0 0  8.2407519306E+01  3.6971236618E+01  3.1215745364E+01  9.5563038534E+01  0.0000000000E+00  0.0000000000E+00  9.0000000000E+00
 -14 1 1 2 0 0 -1.5804123006E+01  5.1881088561E+01  4.5201699750E+01  7.0601779826E+01  0.0000000000E+00  0.0000000000E+00  9.0000000000E+00
 25 1 1 2 0 0 -6.6603396300E+01 -8.8852325179E+01 -7.6417445108E+01  1.8383518163E+02  1.2500000000E+02  0.0000000000E+00  9.0000000000E+00
<weight name="sqme_prc">2.4170498936E+12</weight>
</event>
<event>
 5 1  1.0000000000E+00  2.2702543108E+02 -1.0000000000E+00  1.1780000000E-01
 11 -1 0 0 0 0  0.0000000000E+00  0.0000000000E+00  1.7497245207E+02  1.7497245208E+02  5.1099700000E-04  0.0000000000E+00  9.0000000000E+00
 -11 -1 0 0 0 0  0.0000000000E+00  0.0000000000E+00 -7.3640944252E+01  7.3640944253E+01  5.1099700000E-04  0.0000000000E+00  9.0000000000E+00
 12 1 1 2 0 0 -2.2349897564E+01  1.1337468706E+01  4.0153778590E+01  4.7332674262E+01  0.0000000000E+00  0.0000000000E+00  9.0000000000E+00
 -12 1 1 2 0 0  3.1233416467E+01  9.7333343393E+00 -3.0389896380E+01  4.4652098535E+01  0.0000000000E+00  0.0000000000E+00  9.0000000000E+00
 25 1 1 2 0 0 -8.8835189029E+00 -2.1070803045E+01  9.1567625613E+01  1.5662862353E+02  1.2500000000E+02  0.0000000000E+00  9.0000000000E+00
<weight name="sqme_prc">7.9474945452E-04</weight>
</event>
<event>
 5 1  1.0000000000E+00  3.4848334061E+02 -1.0000000000E+00  1.1780000000E-01
 11 -1 0 0 0 0  0.0000000000E+00  0.0000000000E+00  1.7348662669E+02  1.7348662669E+02  5.1099700000E-04  0.0000000000E+00  9.0000000000E+00
 -11 -1 0 0 0 0  0.0000000000E+00  0.0000000000E+00 -1.7500000000E+02  1.7500000000E+02  5.1099700000E-04  0.0000000000E+00  9.0000000000E+00
 14 1 1 2 0 0 -3.4283055524E+01 -7.2187081807E+01 -3.8504698720E+01  8.8706902209E+01  0.0000000000E+00  0.0000000000E+00  9.0000000000E+00
 -14 1 1 2 0 0  5.3017806079E+01 -4.6954174559E+01 -2.5369417158E+01  7.5227585346E+01  0.0000000000E+00  0.0000000000E+00  9.0000000000E+00
 25 1 1 2 0 0 -1.8734750556E+01  1.1914125637E+02  6.2360742572E+01  1.8455213914E+02  1.2500000000E+02  0.0000000000E+00  9.0000000000E+00
<weight name="sqme_prc">5.5746068381E+13</weight>
</event>
<event>
 5 1  1.0000000000E+00  3.4999987650E+02 -1.0000000000E+00  1.1780000000E-01
 11 -1 0 0 0 0  0.0000000000E+00  0.0000000000E+00  1.7500000000E+02  1.7500000000E+02  5.1099700000E-04  0.0000000000E+00  9.0000000000E+00
 -11 -1 0 0 0 0  0.0000000000E+00  0.0000000000E+00 -1.7499987650E+02  1.7499987650E+02  5.1099700000E-04  0.0000000000E+00  9.0000000000E+00
 16 1 1 2 0 0 -6.4060708432E+01  9.2208538758E+00  5.0838198066E+01  8.2300187689E+01  0.0000000000E+00  0.0000000000E+00  9.0000000000E+00
 -16 1 1 2 0 0 -1.6749834540E+01  7.8664226734E+01  1.6655713676E+01  8.2134221387E+01  0.0000000000E+00  0.0000000000E+00  9.0000000000E+00
 25 1 1 2 0 0  8.0810542972E+01 -8.7885080609E+01 -6.7493788243E+01  1.8556546742E+02  1.2500000000E+02  0.0000000000E+00  9.0000000000E+00
<weight name="sqme_prc">3.6748407002E+12</weight>
</event>
<event>
 5 1  1.0000000000E+00  3.4249383201E+02 -1.0000000000E+00  1.1780000000E-01
 11 -1 0 0 0 0  0.0000000000E+00  0.0000000000E+00  1.6757432137E+02  1.6757432137E+02  5.1099700000E-04  0.0000000000E+00  9.0000000000E+00
 -11 -1 0 0 0 0  0.0000000000E+00  0.0000000000E+00 -1.7500000000E+02  1.7500000000E+02  5.1099700000E-04  0.0000000000E+00  9.0000000000E+00
 12 1 1 2 0 0 -5.1444300869E+01 -2.7303605367E+01  2.1830727382E+01  6.2197939001E+01  0.0000000000E+00  0.0000000000E+00  9.0000000000E+00
 -12 1 1 2 0 0  2.1463529447E+01 -1.9462435011E+01  9.2696210396E+01  9.7118777250E+01  0.0000000000E+00  0.0000000000E+00  9.0000000000E+00
 25 1 1 2 0 0  2.9980771422E+01  4.6766040378E+01 -1.2195261640E+02  1.8325760512E+02  1.2500000000E+02  0.0000000000E+00  9.0000000000E+00
<weight name="sqme_prc">2.1059017967E+15</weight>
</event>
<event>
 5 1  1.0000000000E+00  3.3816498414E+02 -1.0000000000E+00  1.1780000000E-01
 11 -1 0 0 0 0  0.0000000000E+00  0.0000000000E+00  1.6361450671E+02  1.6361450671E+02  5.1099700000E-04  0.0000000000E+00  9.0000000000E+00
 -11 -1 0 0 0 0  0.0000000000E+00  0.0000000000E+00 -1.7473321712E+02  1.7473321712E+02  5.1099700000E-04  0.0000000000E+00  9.0000000000E+00
 16 1 1 2 0 0 -2.8762998012E+01  5.6029842687E+01  6.3682058673E+01  8.9565941758E+01  0.0000000000E+00  0.0000000000E+00  9.0000000000E+00
 -16 1 1 2 0 0 -6.3354083585E+01  1.5145059244E+01 -9.1042302939E+00  6.5772332600E+01  0.0000000000E+00  0.0000000000E+00  9.0000000000E+00
 25 1 1 2 0 0  9.2117081597E+01 -7.1174901931E+01 -6.5696538788E+01  1.8300944947E+02  1.2500000000E+02  0.0000000000E+00  9.0000000000E+00
<weight name="sqme_prc">3.9967275727E-04</weight>
</event>
<event>
 5 1  1.0000000000E+00  3.3426968481E+02 -1.0000000000E+00  1.1780000000E-01
 11 -1 0 0 0 0  0.0000000000E+00  0.0000000000E+00  1.6272404146E+02  1.6272404146E+02  5.1099700000E-04  0.0000000000E+00  9.0000000000E+00
 -11 -1 0 0 0 0  0.0000000000E+00  0.0000000000E+00 -1.7166520261E+02  1.7166520261E+02  5.1099700000E-04  0.0000000000E+00  9.0000000000E+00
 16 1 1 2 0 0 -4.6262540407E+01  4.6394599840E+01  1.3798538981E+01  6.6955815411E+01  0.0000000000E+00  0.0000000000E+00  9.0000000000E+00
 -16 1 1 2 0 0 -2.1653276174E+01  4.3841211180E+01 -7.6332133145E+01  9.0650486580E+01  0.0000000000E+00  0.0000000000E+00  9.0000000000E+00
 25 1 1 2 0 0  6.7915816581E+01 -9.0235811020E+01  5.3592433016E+01  1.7678294208E+02  1.2500000000E+02  0.0000000000E+00  9.0000000000E+00
<weight name="sqme_prc">3.1805251468E-04</weight>
</event>
<event>
 5 1  1.0000000000E+00  3.3471067470E+02 -1.0000000000E+00  1.1780000000E-01
 11 -1 0 0 0 0  0.0000000000E+00  0.0000000000E+00  1.6673203640E+02  1.6673203640E+02  5.1099700000E-04  0.0000000000E+00  9.0000000000E+00
 -11 -1 0 0 0 0  0.0000000000E+00  0.0000000000E+00 -1.6798096842E+02  1.6798096842E+02  5.1099700000E-04  0.0000000000E+00  9.0000000000E+00
 14 1 1 2 0 0 -3.3052222354E+01  2.3535218670E+01  2.2278744302E+01  4.6289289993E+01  0.0000000000E+00  0.0000000000E+00  9.0000000000E+00
 -14 1 1 2 0 0 -8.9687455017E+01 -5.0257572145E+01 -4.0287776238E+01  1.1042086786E+02  0.0000000000E+00  0.0000000000E+00  9.0000000000E+00
 25 1 1 2 0 0  1.2273967737E+02  2.6722353475E+01  1.6760099919E+01  1.7800284696E+02  1.2500000000E+02  0.0000000000E+00  9.0000000000E+00
<weight name="sqme_prc">1.8837559483E-04</weight>
</event>
<event>
 5 1  1.0000000000E+00  3.2163650054E+02 -1.0000000000E+00  1.1780000000E-01
 11 -1 0 0 0 0  0.0000000000E+00  0.0000000000E+00  1.7280059453E+02  1.7280059453E+02  5.1099700000E-04  0.0000000000E+00  9.0000000000E+00
 -11 -1 0 0 0 0  0.0000000000E+00  0.0000000000E+00 -1.4966678611E+02  1.4966678611E+02  5.1099700000E-04  0.0000000000E+00  9.0000000000E+00
 12 1 1 2 0 0  1.6842479175E+00 -8.3968942746E+01  4.2233327670E+01  9.4006776368E+01  0.0000000000E+00  0.0000000000E+00  9.0000000000E+00
 -12 1 1 2 0 0  5.3333892599E+01 -1.8874677386E+01 -1.5309737018E+00  5.6595948854E+01  0.0000000000E+00  0.0000000000E+00  9.0000000000E+00
 25 1 1 2 0 0 -5.5018140517E+01  1.0284362013E+02 -1.7568545546E+01  1.7186465541E+02  1.2500000000E+02  0.0000000000E+00  9.0000000000E+00
<weight name="sqme_prc">1.3855014357E-05</weight>
</event>
<event>
 5 1  1.0000000000E+00  3.4867355021E+02 -1.0000000000E+00  1.1780000000E-01
 11 -1 0 0 0 0  0.0000000000E+00  0.0000000000E+00  1.7497371150E+02  1.7497371150E+02  5.1099700000E-04  0.0000000000E+00  9.0000000000E+00
 -11 -1 0 0 0 0  0.0000000000E+00  0.0000000000E+00 -1.7370215727E+02  1.7370215727E+02  5.1099700000E-04  0.0000000000E+00  9.0000000000E+00
 12 1 1 2 0 0 -9.2399268000E+00 -3.9984814890E+01  2.0864550773E+01  4.6037931622E+01  0.0000000000E+00  0.0000000000E+00  9.0000000000E+00
 -12 1 1 2 0 0 -9.4367882352E+01  2.4318798919E+01  6.6715538609E+01  1.1810022986E+02  0.0000000000E+00  0.0000000000E+00  9.0000000000E+00
 25 1 1 2 0 0  1.0360780915E+02  1.5666015972E+01 -8.6308535150E+01  1.8453770729E+02  1.2500000000E+02  0.0000000000E+00  9.0000000000E+00
<weight name="sqme_prc">1.5407189571E-01</weight>
</event>
<event>
 5 1  1.0000000000E+00  3.4999999658E+02 -1.0000000000E+00  1.1780000000E-01
 11 -1 0 0 0 0  0.0000000000E+00  0.0000000000E+00  1.7499999659E+02  1.7499999659E+02  5.1099700000E-04  0.0000000000E+00  9.0000000000E+00
 -11 -1 0 0 0 0  0.0000000000E+00  0.0000000000E+00 -1.7499999998E+02  1.7499999998E+02  5.1099700000E-04  0.0000000000E+00  9.0000000000E+00
 16 1 1 2 0 0  5.8440180446E+00 -1.0382546630E+01  6.0279738215E+00  1.3352388918E+01  0.0000000000E+00  0.0000000000E+00  9.0000000000E+00
 -16 1 1 2 0 0 -1.3827806879E+02  5.3074021438E+01 -1.8081250564E+01  1.4921329593E+02  0.0000000000E+00  0.0000000000E+00  9.0000000000E+00
 25 1 1 2 0 0  1.3243405074E+02 -4.2691474808E+01  1.2053273353E+01  1.8743431174E+02  1.2500000000E+02  0.0000000000E+00  9.0000000000E+00
<weight name="sqme_prc">2.7771693762E+08</weight>
</event>
<event>
 5 1  1.0000000000E+00  3.4482531087E+02 -1.0000000000E+00  1.1780000000E-01
 11 -1 0 0 0 0  0.0000000000E+00  0.0000000000E+00  1.6987602920E+02  1.6987602920E+02  5.1099700000E-04  0.0000000000E+00  9.0000000000E+00
 -11 -1 0 0 0 0  0.0000000000E+00  0.0000000000E+00 -1.7498715913E+02  1.7498715913E+02  5.1099700000E-04  0.0000000000E+00  9.0000000000E+00
 14 1 1 2 0 0  1.9700461713E+01 -1.3580838970E+01  1.0552682404E+01  2.6151605778E+01  0.0000000000E+00  0.0000000000E+00  9.0000000000E+00
 -14 1 1 2 0 0  1.8193063138E-01  1.1105911207E+02  7.5954181810E+01  1.3454812227E+02  0.0000000000E+00  0.0000000000E+00  9.0000000000E+00
 25 1 1 2 0 0 -1.9882392344E+01 -9.7478273100E+01 -9.1617994142E+01  1.8416346028E+02  1.2500000000E+02  0.0000000000E+00  9.0000000000E+00
<weight name="sqme_prc">4.2037644871E-02</weight>
</event>
<event>
 5 1  1.0000000000E+00  3.4981718711E+02 -1.0000000000E+00  1.1780000000E-01
 11 -1 0 0 0 0  0.0000000000E+00  0.0000000000E+00  1.7481723485E+02  1.7481723485E+02  5.1099700000E-04  0.0000000000E+00  9.0000000000E+00
 -11 -1 0 0 0 0  0.0000000000E+00  0.0000000000E+00 -1.7500000000E+02  1.7500000000E+02  5.1099700000E-04  0.0000000000E+00  9.0000000000E+00
 16 1 1 2 0 0  3.0765536605E+00  3.6420039847E+01  4.5504107528E+01  5.8365300366E+01  0.0000000000E+00  0.0000000000E+00  9.0000000000E+00
 -16 1 1 2 0 0  4.8360345157E+01  8.9661500880E+01 -2.8652194823E+01  1.0582464737E+02  0.0000000000E+00  0.0000000000E+00  9.0000000000E+00
 25 1 1 2 0 0 -5.1436898817E+01 -1.2608154073E+02 -1.7034677851E+01  1.8562728711E+02  1.2500000000E+02  0.0000000000E+00  9.0000000000E+00
<weight name="sqme_prc">3.4661842148E+15</weight>
</event>
<event>
 5 1  1.0000000000E+00  3.4999999086E+02 -1.0000000000E+00  1.1780000000E-01
 11 -1 0 0 0 0  0.0000000000E+00  0.0000000000E+00  1.7499999086E+02  1.7499999086E+02  5.1099700000E-04  0.0000000000E+00  9.0000000000E+00
 -11 -1 0 0 0 0  0.0000000000E+00  0.0000000000E+00 -1.7500000000E+02  1.7500000000E+02  5.1099700000E-04  0.0000000000E+00  9.0000000000E+00
 12 1 1 2 0 0  2.5625242917E+01 -6.7188703015E+00  3.8732457422E+01  4.6925468038E+01  0.0000000000E+00  0.0000000000E+00  9.0000000000E+00
 -12 1 1 2 0 0  9.7244527867E+01  6.3735024035E+01 -1.5577337790E+01  1.1730858852E+02  0.0000000000E+00  0.0000000000E+00  9.0000000000E+00
 25 1 1 2 0 0 -1.2286977078E+02 -5.7016153734E+01 -2.3155128767E+01  1.8576593430E+02  1.2500000000E+02  0.0000000000E+00  9.0000000000E+00
<weight name="sqme_prc">2.3864671218E+13</weight>
</event>
<event>
 5 1  1.0000000000E+00  3.4999993814E+02 -1.0000000000E+00  1.1780000000E-01
 11 -1 0 0 0 0  0.0000000000E+00  0.0000000000E+00  1.7499993814E+02  1.7499993814E+02  5.1099700000E-04  0.0000000000E+00  9.0000000000E+00
 -11 -1 0 0 0 0  0.0000000000E+00  0.0000000000E+00 -1.7500000000E+02  1.7500000000E+02  5.1099700000E-04  0.0000000000E+00  9.0000000000E+00
 12 1 1 2 0 0  6.1184927659E+01  6.5362897548E+00 -3.5991883894E+01  7.1286283131E+01  0.0000000000E+00  0.0000000000E+00  9.0000000000E+00
 -12 1 1 2 0 0  5.6752459988E+01  6.1510413867E+01  4.2289439598E+01  9.3769768211E+01  0.0000000000E+00  0.0000000000E+00  9.0000000000E+00
 25 1 1 2 0 0 -1.1793738765E+02 -6.8046703622E+01 -6.2976175599E+00  1.8494388680E+02  1.2500000000E+02  0.0000000000E+00  9.0000000000E+00
<weight name="sqme_prc">9.2688074815E+22</weight>
</event>
<event>
 5 1  1.0000000000E+00  3.4999994063E+02 -1.0000000000E+00  1.1780000000E-01
 11 -1 0 0 0 0  0.0000000000E+00  0.0000000000E+00  1.7500000000E+02  1.7500000000E+02  5.1099700000E-04  0.0000000000E+00  9.0000000000E+00
 -11 -1 0 0 0 0  0.0000000000E+00  0.0000000000E+00 -1.7499994063E+02  1.7499994063E+02  5.1099700000E-04  0.0000000000E+00  9.0000000000E+00
 16 1 1 2 0 0  1.9016826620E+01 -3.7690897587E+01  1.4272933463E+01  4.4564112078E+01  0.0000000000E+00  0.0000000000E+00  9.0000000000E+00
 -16 1 1 2 0 0  1.1131111200E+02  1.6249187204E+01 -4.4717472037E+01  1.2105309597E+02  0.0000000000E+00  0.0000000000E+00  9.0000000000E+00
 25 1 1 2 0 0 -1.3032793862E+02  2.1441710383E+01  3.0444597948E+01  1.8438273258E+02  1.2500000000E+02  0.0000000000E+00  9.0000000000E+00
<weight name="sqme_prc">1.7037981555E+15</weight>
</event>
<event>
 5 1  1.0000000000E+00  3.4948667954E+02 -1.0000000000E+00  1.1780000000E-01
 11 -1 0 0 0 0  0.0000000000E+00  0.0000000000E+00  1.7452571650E+02  1.7452571650E+02  5.1099700000E-04  0.0000000000E+00  9.0000000000E+00
 -11 -1 0 0 0 0  0.0000000000E+00  0.0000000000E+00 -1.7496123441E+02  1.7496123441E+02  5.1099700000E-04  0.0000000000E+00  9.0000000000E+00
 16 1 1 2 0 0  4.4856887234E+01 -4.0383519933E+01  2.4995397784E+01  6.5327933725E+01  0.0000000000E+00  0.0000000000E+00  9.0000000000E+00
 -16 1 1 2 0 0  6.6466803904E+01 -2.6763101590E+01 -6.8074817606E+01  9.8834611448E+01  0.0000000000E+00  0.0000000000E+00  9.0000000000E+00
 25 1 1 2 0 0 -1.1132369114E+02  6.7146621523E+01  4.2643901913E+01  1.8532440573E+02  1.2500000000E+02  0.0000000000E+00  9.0000000000E+00
<weight name="sqme_prc">5.2649990770E-01</weight>
</event>
<event>
 5 1  1.0000000000E+00  3.4999982878E+02 -1.0000000000E+00  1.1780000000E-01
 11 -1 0 0 0 0  0.0000000000E+00  0.0000000000E+00  1.7499983001E+02  1.7499983001E+02  5.1099700000E-04  0.0000000000E+00  9.0000000000E+00
 -11 -1 0 0 0 0  0.0000000000E+00  0.0000000000E+00 -1.7499999877E+02  1.7499999877E+02  5.1099700000E-04  0.0000000000E+00  9.0000000000E+00
 16 1 1 2 0 0 -4.3737083514E-01  1.7382223695E+01 -5.6276470104E+01  5.8901392863E+01  0.0000000000E+00  0.0000000000E+00  9.0000000000E+00
 -16 1 1 2 0 0  9.5510227264E+01 -1.5842404144E+01 -4.2319224828E+01  1.0566031455E+02  0.0000000000E+00  0.0000000000E+00  9.0000000000E+00
 25 1 1 2 0 0 -9.5072856429E+01 -1.5398195513E+00  9.8595526168E+01  1.8543812136E+02  1.2500000000E+02  0.0000000000E+00  9.0000000000E+00
<weight name="sqme_prc">6.1839686522E+06</weight>
</event>
<event>
 5 1  1.0000000000E+00  2.9361264465E+02 -1.0000000000E+00  1.1780000000E-01
 11 -1 0 0 0 0  0.0000000000E+00  0.0000000000E+00  1.2355856042E+02  1.2355856042E+02  5.1099700000E-04  0.0000000000E+00  9.0000000000E+00
 -11 -1 0 0 0 0  0.0000000000E+00  0.0000000000E+00 -1.7442819179E+02  1.7442819179E+02  5.1099700000E-04  0.0000000000E+00  9.0000000000E+00
 14 1 1 2 0 0  3.6040725918E+01  1.1003091530E+01  1.3811655695E+01  4.0134321733E+01  0.0000000000E+00  0.0000000000E+00  9.0000000000E+00
 -14 1 1 2 0 0  2.1209006581E+01  7.4756976443E+01  1.1922563464E+01  7.8616633142E+01  0.0000000000E+00  0.0000000000E+00  9.0000000000E+00
 25 1 1 2 0 0 -5.7249732499E+01 -8.5760067973E+01 -7.6603850535E+01  1.7923579734E+02  1.2500000000E+02  0.0000000000E+00  9.0000000000E+00
<weight name="sqme_prc">3.9997777864E-07</weight>
</event>
<event>
 5 1  1.0000000000E+00  3.4958990356E+02 -1.0000000000E+00  1.1780000000E-01
 11 -1 0 0 0 0  0.0000000000E+00  0.0000000000E+00  1.7499901861E+02  1.7499901862E+02  5.1099700000E-04  0.0000000000E+00  9.0000000000E+00
 -11 -1 0 0 0 0  0.0000000000E+00  0.0000000000E+00 -1.7459112290E+02  1.7459112291E+02  5.1099700000E-04  0.0000000000E+00  9.0000000000E+00
 12 1 1 2 0 0 -3.8583606421E+01  4.7928573875E+01  6.9161105551E+00  6.1916681625E+01  0.0000000000E+00  0.0000000000E+00  9.0000000000E+00
 -12 1 1 2 0 0 -9.3320694124E+01 -2.4040924384E+01 -3.4301917635E+01  1.0229046657E+02  0.0000000000E+00  0.0000000000E+00  9.0000000000E+00
 25 1 1 2 0 0  1.3190430055E+02 -2.3887649492E+01  2.7793702790E+01  1.8538299333E+02  1.2500000000E+02  0.0000000000E+00  9.0000000000E+00
<weight name="sqme_prc">1.6786898511E+01</weight>
</event>
<event>
 5 1  1.0000000000E+00  3.4459211482E+02 -1.0000000000E+00  1.1780000000E-01
 11 -1 0 0 0 0  0.0000000000E+00  0.0000000000E+00  1.6963389370E+02  1.6963389370E+02  5.1099700000E-04  0.0000000000E+00  9.0000000000E+00
 -11 -1 0 0 0 0  0.0000000000E+00  0.0000000000E+00 -1.7500000000E+02  1.7500000000E+02  5.1099700000E-04  0.0000000000E+00  9.0000000000E+00
 12 1 1 2 0 0  2.5480086356E+01 -4.9127722036E+01 -1.3643165587E+02  1.4722895299E+02  0.0000000000E+00  0.0000000000E+00  9.0000000000E+00
 -12 1 1 2 0 0 -1.3357639539E+01  4.6554245000E+00  9.4129528390E+00  1.6991268124E+01  0.0000000000E+00  0.0000000000E+00  9.0000000000E+00
 25 1 1 2 0 0 -1.2122446818E+01  4.4472297536E+01  1.2165259674E+02  1.8041367259E+02  1.2500000000E+02  0.0000000000E+00  9.0000000000E+00
<weight name="sqme_prc">7.0150489680E+13</weight>
</event>
<event>
 5 1  1.0000000000E+00  3.4999999384E+02 -1.0000000000E+00  1.1780000000E-01
 11 -1 0 0 0 0  0.0000000000E+00  0.0000000000E+00  1.7499999384E+02  1.7499999384E+02  5.1099700000E-04  0.0000000000E+00  9.0000000000E+00
 -11 -1 0 0 0 0  0.0000000000E+00  0.0000000000E+00 -1.7500000000E+02  1.7500000000E+02  5.1099700000E-04  0.0000000000E+00  9.0000000000E+00
 16 1 1 2 0 0  7.0957803611E+00  9.1789022858E+00  1.1275242517E+02  1.1334774690E+02  0.0000000000E+00  0.0000000000E+00  9.0000000000E+00
 -16 1 1 2 0 0  2.6604396345E+01  4.2292218137E+01  1.0016580863E+01  5.0958390006E+01  0.0000000000E+00  0.0000000000E+00  9.0000000000E+00
 25 1 1 2 0 0 -3.3700176706E+01 -5.1471120423E+01 -1.2276901219E+02  1.8569385693E+02  1.2500000000E+02  0.0000000000E+00  9.0000000000E+00
<weight name="sqme_prc">1.2085860562E+13</weight>
</event>
<event>
 5 1  1.0000000000E+00  3.4751170342E+02 -1.0000000000E+00  1.1780000000E-01
 11 -1 0 0 0 0  0.0000000000E+00  0.0000000000E+00  1.7388626204E+02  1.7388626204E+02  5.1099700000E-04  0.0000000000E+00  9.0000000000E+00
 -11 -1 0 0 0 0  0.0000000000E+00  0.0000000000E+00 -1.7362553918E+02  1.7362553918E+02  5.1099700000E-04  0.0000000000E+00  9.0000000000E+00
 12 1 1 2 0 0 -2.1048192555E+01  3.8439877259E+01  1.0210353880E+01  4.4998909985E+01  0.0000000000E+00  0.0000000000E+00  9.0000000000E+00
 -12 1 1 2 0 0  8.6454920043E+01  7.7436891659E+01  1.9176366025E+01  1.1763782726E+02  0.0000000000E+00  0.0000000000E+00  9.0000000000E+00
 25 1 1 2 0 0 -6.5406727488E+01 -1.1587676892E+02 -2.9125997050E+01  1.8487506398E+02  1.2500000000E+02  0.0000000000E+00  9.0000000000E+00
<weight name="sqme_prc">1.2161816522E-03</weight>
</event>
<event>
 5 1  1.0000000000E+00  3.4999829338E+02 -1.0000000000E+00  1.1780000000E-01
 11 -1 0 0 0 0  0.0000000000E+00  0.0000000000E+00  1.7499829338E+02  1.7499829338E+02  5.1099700000E-04  0.0000000000E+00  9.0000000000E+00
 -11 -1 0 0 0 0  0.0000000000E+00  0.0000000000E+00 -1.7500000000E+02  1.7500000000E+02  5.1099700000E-04  0.0000000000E+00  9.0000000000E+00
 16 1 1 2 0 0 -2.2613708093E+01 -1.0014087745E+01 -2.3046310726E+01  3.3805239020E+01  0.0000000000E+00  0.0000000000E+00  9.0000000000E+00
 -16 1 1 2 0 0 -8.6264653439E+01 -4.2608764690E+01  8.8145856435E+01  1.3048673982E+02  0.0000000000E+00  0.0000000000E+00  9.0000000000E+00
 25 1 1 2 0 0  1.0887836153E+02  5.2622852435E+01 -6.5101252321E+01  1.8570631455E+02  1.2500000000E+02  0.0000000000E+00  9.0000000000E+00
<weight name="sqme_prc">2.1332340752E+08</weight>
</event>
<event>
 5 1  1.0000000000E+00  3.3954483380E+02 -1.0000000000E+00  1.1780000000E-01
 11 -1 0 0 0 0  0.0000000000E+00  0.0000000000E+00  1.6703565260E+02  1.6703565260E+02  5.1099700000E-04  0.0000000000E+00  9.0000000000E+00
 -11 -1 0 0 0 0  0.0000000000E+00  0.0000000000E+00 -1.7255402120E+02  1.7255402120E+02  5.1099700000E-04  0.0000000000E+00  9.0000000000E+00
 14 1 1 2 0 0  4.7263404374E-03  1.8492804879E+01 -6.0558564662E+01  6.3319219899E+01  0.0000000000E+00  0.0000000000E+00  9.0000000000E+00
 -14 1 1 2 0 0  3.1789747981E+01 -7.5754655321E+01 -5.3671725204E+01  9.8132614180E+01  0.0000000000E+00  0.0000000000E+00  9.0000000000E+00
 25 1 1 2 0 0 -3.1794474321E+01  5.7261850442E+01  1.0871192127E+02  1.7813783972E+02  1.2500000000E+02  0.0000000000E+00  9.0000000000E+00
<weight name="sqme_prc">5.6577274076E-05</weight>
</event>
<event>
 5 1  1.0000000000E+00  3.4899253914E+02 -1.0000000000E+00  1.1780000000E-01
 11 -1 0 0 0 0  0.0000000000E+00  0.0000000000E+00  1.7410824561E+02  1.7410824562E+02  5.1099700000E-04  0.0000000000E+00  9.0000000000E+00
 -11 -1 0 0 0 0  0.0000000000E+00  0.0000000000E+00 -1.7488515828E+02  1.7488515828E+02  5.1099700000E-04  0.0000000000E+00  9.0000000000E+00
 14 1 1 2 0 0 -1.7594017200E+01  6.0164046516E+01 -5.3532226574E+01  8.2431554737E+01  0.0000000000E+00  0.0000000000E+00  9.0000000000E+00
 -14 1 1 2 0 0  4.8316912440E+01  6.4400398211E+01  2.6141833792E+00  8.0552897355E+01  0.0000000000E+00  0.0000000000E+00  9.0000000000E+00
 25 1 1 2 0 0 -3.0722895240E+01 -1.2456444473E+02  5.0141130525E+01  1.8600895181E+02  1.2500000000E+02  0.0000000000E+00  9.0000000000E+00
<weight name="sqme_prc">5.8613029081E-03</weight>
</event>
<event>
 5 1  1.0000000000E+00  3.1479694320E+02 -1.0000000000E+00  1.1780000000E-01
 11 -1 0 0 0 0  0.0000000000E+00  0.0000000000E+00  1.4156730779E+02  1.4156730779E+02  5.1099700000E-04  0.0000000000E+00  9.0000000000E+00
 -11 -1 0 0 0 0  0.0000000000E+00  0.0000000000E+00 -1.7500000000E+02  1.7500000000E+02  5.1099700000E-04  0.0000000000E+00  9.0000000000E+00
 12 1 1 2 0 0  4.2654067901E+01  9.7133150144E+00 -7.6733270597E+00  4.4413938637E+01  0.0000000000E+00  0.0000000000E+00  9.0000000000E+00
 -12 1 1 2 0 0  1.4219124427E+01 -4.8086917782E+01 -9.9649346295E+01  1.1155504192E+02  0.0000000000E+00  0.0000000000E+00  9.0000000000E+00
 25 1 1 2 0 0 -5.6873192328E+01  3.8373602768E+01  7.3889981142E+01  1.6059832723E+02  1.2500000000E+02  0.0000000000E+00  9.0000000000E+00
<weight name="sqme_prc">1.4442705040E+20</weight>
</event>
<event>
 5 1  1.0000000000E+00  3.4806845505E+02 -1.0000000000E+00  1.1780000000E-01
 11 -1 0 0 0 0  0.0000000000E+00  0.0000000000E+00  1.7317889774E+02  1.7317889774E+02  5.1099700000E-04  0.0000000000E+00  9.0000000000E+00
 -11 -1 0 0 0 0  0.0000000000E+00  0.0000000000E+00 -1.7489378178E+02  1.7489378178E+02  5.1099700000E-04  0.0000000000E+00  9.0000000000E+00
 14 1 1 2 0 0  1.2610090272E+02 -4.8708803152E+01 -3.2732649139E+01  1.3908778340E+02  0.0000000000E+00  0.0000000000E+00  9.0000000000E+00
 -14 1 1 2 0 0 -2.3508567982E+00 -6.1032546495E+00  2.3717619729E+01  2.4602880534E+01  0.0000000000E+00  0.0000000000E+00  9.0000000000E+00
 25 1 1 2 0 0 -1.2375004593E+02  5.4812057802E+01  7.3001453710E+00  1.8438201558E+02  1.2500000000E+02  0.0000000000E+00  9.0000000000E+00
<weight name="sqme_prc">2.2908086172E-02</weight>
</event>
<event>
 5 1  1.0000000000E+00  3.4999294997E+02 -1.0000000000E+00  1.1780000000E-01
 11 -1 0 0 0 0  0.0000000000E+00  0.0000000000E+00  1.7499297347E+02  1.7499297347E+02  5.1099700000E-04  0.0000000000E+00  9.0000000000E+00
 -11 -1 0 0 0 0  0.0000000000E+00  0.0000000000E+00 -1.7499997657E+02  1.7499997657E+02  5.1099700000E-04  0.0000000000E+00  9.0000000000E+00
 12 1 1 2 0 0 -6.3709916939E+01  9.3808668955E+00  3.7776516184E+01  7.4659355443E+01  0.0000000000E+00  0.0000000000E+00  9.0000000000E+00
 -12 1 1 2 0 0 -6.8649902141E+01  2.2415116650E+01 -5.3471510438E+01  8.9857937584E+01  0.0000000000E+00  0.0000000000E+00  9.0000000000E+00
 25 1 1 2 0 0  1.3235981908E+02 -3.1795983545E+01  1.5687991150E+01  1.8547565701E+02  1.2500000000E+02  0.0000000000E+00  9.0000000000E+00
<weight name="sqme_prc">3.9366769452E+04</weight>
</event>
<event>
 5 1  1.0000000000E+00  3.0681172244E+02 -1.0000000000E+00  1.1780000000E-01
 11 -1 0 0 0 0  0.0000000000E+00  0.0000000000E+00  1.4803428011E+02  1.4803428011E+02  5.1099700000E-04  0.0000000000E+00  9.0000000000E+00
 -11 -1 0 0 0 0  0.0000000000E+00  0.0000000000E+00 -1.5897235585E+02  1.5897235585E+02  5.1099700000E-04  0.0000000000E+00  9.0000000000E+00
 14 1 1 2 0 0  7.5103999447E+01 -9.0903308015E+01 -1.5169248397E+01  1.1888703982E+02  0.0000000000E+00  0.0000000000E+00  9.0000000000E+00
 -14 1 1 2 0 0 -1.7629466332E+01  3.3023583398E+00 -1.5658345148E+01  2.3809397861E+01  0.0000000000E+00  0.0000000000E+00  9.0000000000E+00
 25 1 1 2 0 0 -5.7474533115E+01  8.7600949675E+01  1.9889517804E+01  1.6431019828E+02  1.2500000000E+02  0.0000000000E+00  9.0000000000E+00
<weight name="sqme_prc">1.3553178718E-05</weight>
</event>
<event>
 5 1  1.0000000000E+00  2.7432874450E+02 -1.0000000000E+00  1.1780000000E-01
 11 -1 0 0 0 0  0.0000000000E+00  0.0000000000E+00  1.0750894294E+02  1.0750894295E+02  5.1099700000E-04  0.0000000000E+00  9.0000000000E+00
 -11 -1 0 0 0 0  0.0000000000E+00  0.0000000000E+00 -1.7500000000E+02  1.7500000000E+02  5.1099700000E-04  0.0000000000E+00  9.0000000000E+00
 16 1 1 2 0 0 -4.3116222878E+00  2.2883408931E+01  2.8456515978E+01  3.6769740177E+01  0.0000000000E+00  0.0000000000E+00  9.0000000000E+00
 -16 1 1 2 0 0  7.3596378066E+00 -7.3107217835E+01  1.0231110167E+01  7.4185613049E+01  0.0000000000E+00  0.0000000000E+00  9.0000000000E+00
 25 1 1 2 0 0 -3.0480155187E+00  5.0223808904E+01 -1.0617868320E+02  1.7155358972E+02  1.2500000000E+02  0.0000000000E+00  9.0000000000E+00
<weight name="sqme_prc">5.7790581547E+04</weight>
</event>
<event>
 5 1  1.0000000000E+00  3.4999198259E+02 -1.0000000000E+00  1.1780000000E-01
 11 -1 0 0 0 0  0.0000000000E+00  0.0000000000E+00  1.7499198269E+02  1.7499198269E+02  5.1099700000E-04  0.0000000000E+00  9.0000000000E+00
 -11 -1 0 0 0 0  0.0000000000E+00  0.0000000000E+00 -1.7500000000E+02  1.7500000000E+02  5.1099700000E-04  0.0000000000E+00  9.0000000000E+00
 12 1 1 2 0 0 -3.1038463567E+01 -1.2832843019E+02  5.1029747972E+01  1.4154719140E+02  0.0000000000E+00  0.0000000000E+00  9.0000000000E+00
 -12 1 1 2 0 0  1.5502937311E+00 -5.9920028993E+00 -1.8847082509E+01  1.9837339249E+01  0.0000000000E+00  0.0000000000E+00  9.0000000000E+00
 25 1 1 2 0 0  2.9488169835E+01  1.3432043309E+02 -3.2190682777E+01  1.8860745204E+02  1.2500000000E+02  0.0000000000E+00  9.0000000000E+00
<weight name="sqme_prc">4.7331617174E+10</weight>
</event>
<event>
 5 1  1.0000000000E+00  3.4235426447E+02 -1.0000000000E+00  1.1780000000E-01
 11 -1 0 0 0 0  0.0000000000E+00  0.0000000000E+00  1.7499999999E+02  1.7499999999E+02  5.1099700000E-04  0.0000000000E+00  9.0000000000E+00
 -11 -1 0 0 0 0  0.0000000000E+00  0.0000000000E+00 -1.6743777486E+02  1.6743777486E+02  5.1099700000E-04  0.0000000000E+00  9.0000000000E+00
 12 1 1 2 0 0 -5.6425682806E+01  5.5422581554E+01  6.0918137016E+01  9.9832558035E+01  0.0000000000E+00  0.0000000000E+00  9.0000000000E+00
 -12 1 1 2 0 0 -5.5915968962E+01  5.4027304368E+00 -2.5583802204E+01  6.1727757260E+01  0.0000000000E+00  0.0000000000E+00  9.0000000000E+00
 25 1 1 2 0 0  1.1234165177E+02 -6.0825311991E+01 -2.7772109676E+01  1.8087745956E+02  1.2500000000E+02  0.0000000000E+00  9.0000000000E+00
<weight name="sqme_prc">6.4164126770E+04</weight>
</event>
<event>
 5 1  1.0000000000E+00  3.4964775894E+02 -1.0000000000E+00  1.1780000000E-01
 11 -1 0 0 0 0  0.0000000000E+00  0.0000000000E+00  1.7464793619E+02  1.7464793619E+02  5.1099700000E-04  0.0000000000E+00  9.0000000000E+00
 -11 -1 0 0 0 0  0.0000000000E+00  0.0000000000E+00 -1.7500000000E+02  1.7500000000E+02  5.1099700000E-04  0.0000000000E+00  9.0000000000E+00
 12 1 1 2 0 0  1.6727863520E+01 -1.2487148625E+02  3.6790839733E+01  1.3124890622E+02  0.0000000000E+00  0.0000000000E+00  9.0000000000E+00
 -12 1 1 2 0 0 -2.0043737589E+01 -1.1246286601E+01 -2.3795480758E+01  3.3082552552E+01  0.0000000000E+00  0.0000000000E+00  9.0000000000E+00
 25 1 1 2 0 0  3.3158740690E+00  1.3611777285E+02 -1.3347422788E+01  1.8531647741E+02  1.2500000000E+02  0.0000000000E+00  9.0000000000E+00
<weight name="sqme_prc">2.3338095073E+07</weight>
</event>
<event>
 5 1  1.0000000000E+00  3.4982038735E+02 -1.0000000000E+00  1.1780000000E-01
 11 -1 0 0 0 0  0.0000000000E+00  0.0000000000E+00  1.7482095217E+02  1.7482095217E+02  5.1099700000E-04  0.0000000000E+00  9.0000000000E+00
 -11 -1 0 0 0 0  0.0000000000E+00  0.0000000000E+00 -1.7499948073E+02  1.7499948073E+02  5.1099700000E-04  0.0000000000E+00  9.0000000000E+00
 16 1 1 2 0 0  1.7624570827E+00  1.2951588671E+02  7.4495457373E+01  1.4942236892E+02  0.0000000000E+00  0.0000000000E+00  9.0000000000E+00
 -16 1 1 2 0 0  6.5304625949E+00 -1.2448460318E+01 -2.1090434631E+00  1.4214751856E+01  0.0000000000E+00  0.0000000000E+00  9.0000000000E+00
 25 1 1 2 0 0 -8.2929196776E+00 -1.1706742639E+02 -7.2564942475E+01  1.8618331213E+02  1.2500000000E+02  0.0000000000E+00  9.0000000000E+00
<weight name="sqme_prc">3.6666550756E+00</weight>
</event>
<event>
 5 1  1.0000000000E+00  3.4999269183E+02 -1.0000000000E+00  1.1780000000E-01
 11 -1 0 0 0 0  0.0000000000E+00  0.0000000000E+00  1.7499269893E+02  1.7499269893E+02  5.1099700000E-04  0.0000000000E+00  9.0000000000E+00
 -11 -1 0 0 0 0  0.0000000000E+00  0.0000000000E+00 -1.7499999297E+02  1.7499999297E+02  5.1099700000E-04  0.0000000000E+00  9.0000000000E+00
 14 1 1 2 0 0  8.5437848500E+01  1.1535401304E+01  3.4118132331E+01  9.2718597882E+01  0.0000000000E+00  0.0000000000E+00  9.0000000000E+00
 -14 1 1 2 0 0  1.1759515236E+00  3.8280721736E+01  6.0323079847E+01  7.1453974563E+01  0.0000000000E+00  0.0000000000E+00  9.0000000000E+00
 25 1 1 2 0 0 -8.6613800023E+01 -4.9816123040E+01 -9.4448506219E+01  1.8582011946E+02  1.2500000000E+02  0.0000000000E+00  9.0000000000E+00
<weight name="sqme_prc">1.8431491077E+04</weight>
</event>
<event>
 5 1  1.0000000000E+00  3.4996237641E+02 -1.0000000000E+00  1.1780000000E-01
 11 -1 0 0 0 0  0.0000000000E+00  0.0000000000E+00  1.7499999991E+02  1.7499999991E+02  5.1099700000E-04  0.0000000000E+00  9.0000000000E+00
 -11 -1 0 0 0 0  0.0000000000E+00  0.0000000000E+00 -1.7496237852E+02  1.7496237852E+02  5.1099700000E-04  0.0000000000E+00  9.0000000000E+00
 14 1 1 2 0 0 -6.7364984115E+01 -7.8427056591E+00  1.8373673376E+01  7.0264791967E+01  0.0000000000E+00  0.0000000000E+00  9.0000000000E+00
 -14 1 1 2 0 0 -1.3712747834E+01  2.8144790906E+01  8.9395762463E+01  9.4719433352E+01  0.0000000000E+00  0.0000000000E+00  9.0000000000E+00
 25 1 1 2 0 0  8.1077731949E+01 -2.0302085247E+01 -1.0773181445E+02  1.8497815311E+02  1.2500000000E+02  0.0000000000E+00  9.0000000000E+00
<weight name="sqme_prc">2.0364932655E+05</weight>
</event>
<event>
 5 1  1.0000000000E+00  3.4999998919E+02 -1.0000000000E+00  1.1780000000E-01
 11 -1 0 0 0 0  0.0000000000E+00  0.0000000000E+00  1.7500000000E+02  1.7500000000E+02  5.1099700000E-04  0.0000000000E+00  9.0000000000E+00
 -11 -1 0 0 0 0  0.0000000000E+00  0.0000000000E+00 -1.7499998919E+02  1.7499998919E+02  5.1099700000E-04  0.0000000000E+00  9.0000000000E+00
 14 1 1 2 0 0  5.9438663817E+01 -2.5815985746E+01 -4.8617636224E+01  8.1012927539E+01  0.0000000000E+00  0.0000000000E+00  9.0000000000E+00
 -14 1 1 2 0 0  6.7331271312E+01  4.9310062550E+01  2.0961852036E+00  8.3482790787E+01  0.0000000000E+00  0.0000000000E+00  9.0000000000E+00
 25 1 1 2 0 0 -1.2676993513E+02 -2.3494076804E+01  4.6521461832E+01  1.8550427086E+02  1.2500000000E+02  0.0000000000E+00  9.0000000000E+00
<weight name="sqme_prc">5.8934825206E+11</weight>
</event>
<event>
 5 1  1.0000000000E+00  3.4992596177E+02 -1.0000000000E+00  1.1780000000E-01
 11 -1 0 0 0 0  0.0000000000E+00  0.0000000000E+00  1.7500000000E+02  1.7500000000E+02  5.1099700000E-04  0.0000000000E+00  9.0000000000E+00
 -11 -1 0 0 0 0  0.0000000000E+00  0.0000000000E+00 -1.7492596961E+02  1.7492596961E+02  5.1099700000E-04  0.0000000000E+00  9.0000000000E+00
 16 1 1 2 0 0 -8.8660686883E+00  1.4007023916E+02 -3.4401412678E+01  1.4450514270E+02  0.0000000000E+00  0.0000000000E+00  9.0000000000E+00
 -16 1 1 2 0 0  1.7942952900E+01 -8.4539675898E+00 -2.3870243950E+00  1.9977913110E+01  0.0000000000E+00  0.0000000000E+00  9.0000000000E+00
 25 1 1 2 0 0 -9.0768842114E+00 -1.3161627157E+02  3.6862467462E+01  1.8544291379E+02  1.2500000000E+02  0.0000000000E+00  9.0000000000E+00
<weight name="sqme_prc">5.6320763458E+06</weight>
</event>
<event>
 5 1  1.0000000000E+00  3.3977228017E+02 -1.0000000000E+00  1.1780000000E-01
 11 -1 0 0 0 0  0.0000000000E+00  0.0000000000E+00  1.6665898355E+02  1.6665898355E+02  5.1099700000E-04  0.0000000000E+00  9.0000000000E+00
 -11 -1 0 0 0 0  0.0000000000E+00  0.0000000000E+00 -1.7317578673E+02  1.7317578673E+02  5.1099700000E-04  0.0000000000E+00  9.0000000000E+00
 16 1 1 2 0 0 -3.7343083053E+01 -1.5177846692E+01  1.3642855590E+01  4.2555850253E+01  0.0000000000E+00  0.0000000000E+00  9.0000000000E+00
 -16 1 1 2 0 0  3.9788230699E+01 -8.4978900753E+01  6.6631539939E+01  1.1508379117E+02  0.0000000000E+00  0.0000000000E+00  9.0000000000E+00
 25 1 1 2 0 0 -2.4451476459E+00  1.0015674744E+02 -8.6791198715E+01  1.8219512886E+02  1.2500000000E+02  0.0000000000E+00  9.0000000000E+00
<weight name="sqme_prc">4.6151572047E-04</weight>
</event>
<event>
 5 1  1.0000000000E+00  3.4591122851E+02 -1.0000000000E+00  1.1780000000E-01
 11 -1 0 0 0 0  0.0000000000E+00  0.0000000000E+00  1.7109977042E+02  1.7109977042E+02  5.1099700000E-04  0.0000000000E+00  9.0000000000E+00
 -11 -1 0 0 0 0  0.0000000000E+00  0.0000000000E+00 -1.7483158761E+02  1.7483158761E+02  5.1099700000E-04  0.0000000000E+00  9.0000000000E+00
 14 1 1 2 0 0  8.7911906352E+00 -6.2439895802E+01 -3.3200779608E+01  7.1262313934E+01  0.0000000000E+00  0.0000000000E+00  9.0000000000E+00
 -14 1 1 2 0 0  8.2111802654E+01 -6.2774487956E+00 -4.0318681631E+01  9.1691605869E+01  0.0000000000E+00  0.0000000000E+00  9.0000000000E+00
 25 1 1 2 0 0 -9.0902993289E+01  6.8717344598E+01  6.9787644056E+01  1.8297743823E+02  1.2500000000E+02  0.0000000000E+00  9.0000000000E+00
<weight name="sqme_prc">8.7808288582E-03</weight>
</event>
<event>
 5 1  1.0000000000E+00  2.2975206907E+02 -1.0000000000E+00  1.1780000000E-01
 11 -1 0 0 0 0  0.0000000000E+00  0.0000000000E+00  1.1114746588E+02  1.1114746588E+02  5.1099700000E-04  0.0000000000E+00  9.0000000000E+00
 -11 -1 0 0 0 0  0.0000000000E+00  0.0000000000E+00 -1.1872968228E+02  1.1872968228E+02  5.1099700000E-04  0.0000000000E+00  9.0000000000E+00
 16 1 1 2 0 0  3.7868003794E+01 -1.2205893097E+01 -1.4519717883E+01  4.2353178689E+01  0.0000000000E+00  0.0000000000E+00  9.0000000000E+00
 -16 1 1 2 0 0 -5.4821708562E+01 -1.1133281708E+01 -1.3688024905E+01  5.7591073241E+01  0.0000000000E+00  0.0000000000E+00  9.0000000000E+00
 25 1 1 2 0 0  1.6953704768E+01  2.3339174805E+01  2.0625526385E+01  1.2993289624E+02  1.2500000000E+02  0.0000000000E+00  9.0000000000E+00
<weight name="sqme_prc">2.2980689155E-06</weight>
</event>
<event>
 5 1  1.0000000000E+00  3.1345861844E+02 -1.0000000000E+00  1.1780000000E-01
 11 -1 0 0 0 0  0.0000000000E+00  0.0000000000E+00  1.4333604815E+02  1.4333604815E+02  5.1099700000E-04  0.0000000000E+00  9.0000000000E+00
 -11 -1 0 0 0 0  0.0000000000E+00  0.0000000000E+00 -1.7137403106E+02  1.7137403106E+02  5.1099700000E-04  0.0000000000E+00  9.0000000000E+00
 14 1 1 2 0 0 -3.2697964765E+01 -3.8110531702E+01  5.3655355384E+01  7.3487867623E+01  0.0000000000E+00  0.0000000000E+00  9.0000000000E+00
 -14 1 1 2 0 0 -6.0142371659E+01 -1.4910866342E+01 -2.9708690276E+01  6.8717138195E+01  0.0000000000E+00  0.0000000000E+00  9.0000000000E+00
 25 1 1 2 0 0  9.2840336423E+01  5.3021398044E+01 -5.1984648015E+01  1.7250507340E+02  1.2500000000E+02  0.0000000000E+00  9.0000000000E+00
<weight name="sqme_prc">1.3720220932E-04</weight>
</event>
<event>
 5 1  1.0000000000E+00  2.2423552028E+02 -1.0000000000E+00  1.1780000000E-01
 11 -1 0 0 0 0  0.0000000000E+00  0.0000000000E+00  1.7499875633E+02  1.7499875633E+02  5.1099700000E-04  0.0000000000E+00  9.0000000000E+00
 -11 -1 0 0 0 0  0.0000000000E+00  0.0000000000E+00 -7.1831322698E+01  7.1831322700E+01  5.1099700000E-04  0.0000000000E+00  9.0000000000E+00
 14 1 1 2 0 0  1.6042696653E+01 -3.6095484883E+01  5.9869335997E+01  7.1725794088E+01  0.0000000000E+00  0.0000000000E+00  9.0000000000E+00
 -14 1 1 2 0 0  1.5103767762E+01  3.2633720163E+01 -7.2387176654E+00  3.6680819589E+01  0.0000000000E+00  0.0000000000E+00  9.0000000000E+00
 25 1 1 2 0 0 -3.1146464415E+01  3.4617647203E+00  5.0536815304E+01  1.3842346536E+02  1.2500000000E+02  0.0000000000E+00  9.0000000000E+00
<weight name="sqme_prc">2.4300694777E-02</weight>
</event>
<event>
 5 1  1.0000000000E+00  3.5000000000E+02 -1.0000000000E+00  1.1780000000E-01
 11 -1 0 0 0 0  0.0000000000E+00  0.0000000000E+00  1.7500000000E+02  1.7500000000E+02  5.1099700000E-04  0.0000000000E+00  9.0000000000E+00
 -11 -1 0 0 0 0  0.0000000000E+00  0.0000000000E+00 -1.7500000000E+02  1.7500000000E+02  5.1099700000E-04  0.0000000000E+00  9.0000000000E+00
 12 1 1 2 0 0  3.7996142818E+01  9.1260997241E-01  3.6812044614E+01  5.2911873475E+01  0.0000000000E+00  0.0000000000E+00  9.0000000000E+00
 -12 1 1 2 0 0  7.2566291360E+01 -8.1326761528E+01 -4.8202844397E+00  1.0910153035E+02  0.0000000000E+00  0.0000000000E+00  9.0000000000E+00
 25 1 1 2 0 0 -1.1056243418E+02  8.0414151555E+01 -3.1991760171E+01  1.8798659617E+02  1.2500000000E+02  0.0000000000E+00  9.0000000000E+00
<weight name="sqme_prc">1.9054975778E+18</weight>
</event>
<event>
 5 1  1.0000000000E+00  3.4900412758E+02 -1.0000000000E+00  1.1780000000E-01
 11 -1 0 0 0 0  0.0000000000E+00  0.0000000000E+00  1.7418725361E+02  1.7418725361E+02  5.1099700000E-04  0.0000000000E+00  9.0000000000E+00
 -11 -1 0 0 0 0  0.0000000000E+00  0.0000000000E+00 -1.7481744293E+02  1.7481744293E+02  5.1099700000E-04  0.0000000000E+00  9.0000000000E+00
 12 1 1 2 0 0  4.8883786396E+01  5.3117897170E+01  4.3120034581E+01  8.4086104408E+01  0.0000000000E+00  0.0000000000E+00  9.0000000000E+00
 -12 1 1 2 0 0 -1.1325308969E+01  7.5746084172E+01 -2.4909740392E+01  8.0537116021E+01  0.0000000000E+00  0.0000000000E+00  9.0000000000E+00
 25 1 1 2 0 0 -3.7558477427E+01 -1.2886398134E+02 -1.8840483510E+01  1.8438147611E+02  1.2500000000E+02  0.0000000000E+00  9.0000000000E+00
<weight name="sqme_prc">1.8750274374E-02</weight>
</event>
<event>
 5 1  1.0000000000E+00  3.4999999998E+02 -1.0000000000E+00  1.1780000000E-01
 11 -1 0 0 0 0  0.0000000000E+00  0.0000000000E+00  1.7499999998E+02  1.7499999998E+02  5.1099700000E-04  0.0000000000E+00  9.0000000000E+00
 -11 -1 0 0 0 0  0.0000000000E+00  0.0000000000E+00 -1.7500000000E+02  1.7500000000E+02  5.1099700000E-04  0.0000000000E+00  9.0000000000E+00
 14 1 1 2 0 0  6.7498422974E+01 -1.8953464615E+01  9.2365650761E+01  1.1595983945E+02  0.0000000000E+00  0.0000000000E+00  9.0000000000E+00
 -14 1 1 2 0 0  6.1800279039E+00 -4.8612817946E+01  4.7182973179E-01  4.9006340782E+01  0.0000000000E+00  0.0000000000E+00  9.0000000000E+00
 25 1 1 2 0 0 -7.3678450878E+01  6.7566282561E+01 -9.2837480511E+01  1.8503381975E+02  1.2500000000E+02  0.0000000000E+00  9.0000000000E+00
<weight name="sqme_prc">5.8945553078E+13</weight>
</event>
<event>
 5 1  1.0000000000E+00  3.5000000000E+02 -1.0000000000E+00  1.1780000000E-01
 11 -1 0 0 0 0  0.0000000000E+00  0.0000000000E+00  1.7500000000E+02  1.7500000000E+02  5.1099700000E-04  0.0000000000E+00  9.0000000000E+00
 -11 -1 0 0 0 0  0.0000000000E+00  0.0000000000E+00 -1.7500000000E+02  1.7500000000E+02  5.1099700000E-04  0.0000000000E+00  9.0000000000E+00
 14 1 1 2 0 0  5.9361179627E+01 -9.0675573411E+01 -8.9104152293E+00  1.0874375734E+02  0.0000000000E+00  0.0000000000E+00  9.0000000000E+00
 -14 1 1 2 0 0  5.3904874656E+01  1.3903912223E+01 -7.2036757972E-01  5.5673810865E+01  0.0000000000E+00  0.0000000000E+00  9.0000000000E+00
 25 1 1 2 0 0 -1.1326605428E+02  7.6771661188E+01  9.6307828092E+00  1.8558243180E+02  1.2500000000E+02  0.0000000000E+00  9.0000000000E+00
<weight name="sqme_prc">5.0726186344E+19</weight>
</event>
<event>
 5 1  1.0000000000E+00  3.4997650442E+02 -1.0000000000E+00  1.1780000000E-01
 11 -1 0 0 0 0  0.0000000000E+00  0.0000000000E+00  1.7499997617E+02  1.7499997618E+02  5.1099700000E-04  0.0000000000E+00  9.0000000000E+00
 -11 -1 0 0 0 0  0.0000000000E+00  0.0000000000E+00 -1.7497652903E+02  1.7497652903E+02  5.1099700000E-04  0.0000000000E+00  9.0000000000E+00
 14 1 1 2 0 0 -1.2931232643E+00 -9.7487806572E+01  8.6641720866E+01  1.3043133210E+02  0.0000000000E+00  0.0000000000E+00  9.0000000000E+00
 -14 1 1 2 0 0 -9.5806998359E+00 -2.2827516060E+01 -2.4807210335E+01  3.5046868383E+01  0.0000000000E+00  0.0000000000E+00  9.0000000000E+00
 25 1 1 2 0 0  1.0873823100E+01  1.2031532263E+02 -6.1811063384E+01  1.8449830472E+02  1.2500000000E+02  0.0000000000E+00  9.0000000000E+00
<weight name="sqme_prc">1.0415231250E+03</weight>
</event>
<event>
 5 1  1.0000000000E+00  3.4999999932E+02 -1.0000000000E+00  1.1780000000E-01
 11 -1 0 0 0 0  0.0000000000E+00  0.0000000000E+00  1.7499999931E+02  1.7499999932E+02  5.1099700000E-04  0.0000000000E+00  9.0000000000E+00
 -11 -1 0 0 0 0  0.0000000000E+00  0.0000000000E+00 -1.7500000000E+02  1.7500000000E+02  5.1099700000E-04  0.0000000000E+00  9.0000000000E+00
 16 1 1 2 0 0  6.4836106421E+01 -6.6128660248E+00 -5.5631909459E+01  8.5687572278E+01  0.0000000000E+00  0.0000000000E+00  9.0000000000E+00
 -16 1 1 2 0 0  6.6871801071E+01  2.9793174460E+01  3.1407139534E+01  7.9661028342E+01  0.0000000000E+00  0.0000000000E+00  9.0000000000E+00
 25 1 1 2 0 0 -1.3170790749E+02 -2.3180308435E+01  2.4224769241E+01  1.8465139869E+02  1.2500000000E+02  0.0000000000E+00  9.0000000000E+00
<weight name="sqme_prc">1.3289237238E+22</weight>
</event>
<event>
 5 1  1.0000000000E+00  3.4995591483E+02 -1.0000000000E+00  1.1780000000E-01
 11 -1 0 0 0 0  0.0000000000E+00  0.0000000000E+00  1.7495593836E+02  1.7495593836E+02  5.1099700000E-04  0.0000000000E+00  9.0000000000E+00
 -11 -1 0 0 0 0  0.0000000000E+00  0.0000000000E+00 -1.7499997924E+02  1.7499997924E+02  5.1099700000E-04  0.0000000000E+00  9.0000000000E+00
 14 1 1 2 0 0 -8.3400307953E+00  2.8561791581E+01 -6.8546531170E+01  7.4725892349E+01  0.0000000000E+00  0.0000000000E+00  9.0000000000E+00
 -14 1 1 2 0 0 -8.5501643134E+01  1.2777422491E+01 -2.2993627530E+01  8.9456695731E+01  0.0000000000E+00  0.0000000000E+00  9.0000000000E+00
 25 1 1 2 0 0  9.3841673930E+01 -4.1339214072E+01  9.1496117819E+01  1.8577332952E+02  1.2500000000E+02  0.0000000000E+00  9.0000000000E+00
<weight name="sqme_prc">1.3888220336E+03</weight>
</event>
<event>
 5 1  1.0000000000E+00  3.0922044011E+02 -1.0000000000E+00  1.1780000000E-01
 11 -1 0 0 0 0  0.0000000000E+00  0.0000000000E+00  1.3659611512E+02  1.3659611512E+02  5.1099700000E-04  0.0000000000E+00  9.0000000000E+00
 -11 -1 0 0 0 0  0.0000000000E+00  0.0000000000E+00 -1.7500000000E+02  1.7500000000E+02  5.1099700000E-04  0.0000000000E+00  9.0000000000E+00
 16 1 1 2 0 0  5.9425318823E+00 -2.1647815181E+01 -2.1536430083E+00  2.2551713139E+01  0.0000000000E+00  0.0000000000E+00  9.0000000000E+00
 -16 1 1 2 0 0 -1.1436324944E+02  2.9559496001E+01  5.3499008909E+00  1.1824270829E+02  0.0000000000E+00  0.0000000000E+00  9.0000000000E+00
 25 1 1 2 0 0  1.0842071755E+02 -7.9116808199E+00 -4.1600142764E+01  1.7080169369E+02  1.2500000000E+02  0.0000000000E+00  9.0000000000E+00
<weight name="sqme_prc">5.0983166392E+07</weight>
</event>
<event>
 5 1  1.0000000000E+00  3.4993783518E+02 -1.0000000000E+00  1.1780000000E-01
 11 -1 0 0 0 0  0.0000000000E+00  0.0000000000E+00  1.7495668472E+02  1.7495668472E+02  5.1099700000E-04  0.0000000000E+00  9.0000000000E+00
 -11 -1 0 0 0 0  0.0000000000E+00  0.0000000000E+00 -1.7498115131E+02  1.7498115131E+02  5.1099700000E-04  0.0000000000E+00  9.0000000000E+00
 14 1 1 2 0 0  2.5156819089E+01  8.9239537229E+00 -3.5341381273E+00  2.6925687160E+01  0.0000000000E+00  0.0000000000E+00  9.0000000000E+00
 -14 1 1 2 0 0 -4.5735593079E+01  1.0079059834E+02  8.2202018445E+01  1.3786827418E+02  0.0000000000E+00  0.0000000000E+00  9.0000000000E+00
 25 1 1 2 0 0  2.0578773990E+01 -1.0971455207E+02 -7.8692346913E+01  1.8514387469E+02  1.2500000000E+02  0.0000000000E+00  9.0000000000E+00
<weight name="sqme_prc">2.5775627819E+00</weight>
</event>
<event>
 5 1  1.0000000000E+00  3.4766696625E+02 -1.0000000000E+00  1.1780000000E-01
 11 -1 0 0 0 0  0.0000000000E+00  0.0000000000E+00  1.7499960994E+02  1.7499960994E+02  5.1099700000E-04  0.0000000000E+00  9.0000000000E+00
 -11 -1 0 0 0 0  0.0000000000E+00  0.0000000000E+00 -1.7267512691E+02  1.7267512691E+02  5.1099700000E-04  0.0000000000E+00  9.0000000000E+00
 14 1 1 2 0 0 -1.1354917818E+01 -2.2123378447E+01 -1.9148903931E+00  2.4940826726E+01  0.0000000000E+00  0.0000000000E+00  9.0000000000E+00
 -14 1 1 2 0 0  1.2799035631E+02 -2.5681027889E+01 -4.5719433873E+01  1.3831599016E+02  0.0000000000E+00  0.0000000000E+00  9.0000000000E+00
 25 1 1 2 0 0 -1.1663543849E+02  4.7804406336E+01  4.9958807294E+01  1.8441791996E+02  1.2500000000E+02  0.0000000000E+00  9.0000000000E+00
<weight name="sqme_prc">2.5822149967E+00</weight>
</event>
<event>
 5 1  1.0000000000E+00  2.4684612695E+02 -1.0000000000E+00  1.1780000000E-01
 11 -1 0 0 0 0  0.0000000000E+00  0.0000000000E+00  8.7047384042E+01  8.7047384044E+01  5.1099700000E-04  0.0000000000E+00  9.0000000000E+00
 -11 -1 0 0 0 0  0.0000000000E+00  0.0000000000E+00 -1.7499954497E+02  1.7499954497E+02  5.1099700000E-04  0.0000000000E+00  9.0000000000E+00
 12 1 1 2 0 0  7.5930437647E+00  3.3171949683E+00  2.6559361613E+01  2.7821893993E+01  0.0000000000E+00  0.0000000000E+00  9.0000000000E+00
 -12 1 1 2 0 0 -2.6456646252E+01  5.4152000504E+01 -6.0000854294E+01  8.5044081543E+01  0.0000000000E+00  0.0000000000E+00  9.0000000000E+00
 25 1 1 2 0 0  1.8863602487E+01 -5.7469195472E+01 -5.4510668242E+01  1.4918095347E+02  1.2500000000E+02  0.0000000000E+00  9.0000000000E+00
<weight name="sqme_prc">6.7237022249E-02</weight>
</event>
<event>
 5 1  1.0000000000E+00  3.4807607168E+02 -1.0000000000E+00  1.1780000000E-01
 11 -1 0 0 0 0  0.0000000000E+00  0.0000000000E+00  1.7308135953E+02  1.7308135953E+02  5.1099700000E-04  0.0000000000E+00  9.0000000000E+00
 -11 -1 0 0 0 0  0.0000000000E+00  0.0000000000E+00 -1.7500000000E+02  1.7500000000E+02  5.1099700000E-04  0.0000000000E+00  9.0000000000E+00
 14 1 1 2 0 0  8.9833881126E+01  3.8441483806E+01  4.5343164130E+01  1.0772129041E+02  0.0000000000E+00  0.0000000000E+00  9.0000000000E+00
 -14 1 1 2 0 0  2.1077208754E+01 -4.0292550083E+01  3.1791935594E+01  5.5483921003E+01  0.0000000000E+00  0.0000000000E+00  9.0000000000E+00
 25 1 1 2 0 0 -1.1091108988E+02  1.8510662773E+00 -7.9053740189E+01  1.8487614812E+02  1.2500000000E+02  0.0000000000E+00  9.0000000000E+00
<weight name="sqme_prc">1.8814523911E+09</weight>
</event>
<event>
 5 1  1.0000000000E+00  2.7350540773E+02 -1.0000000000E+00  1.1780000000E-01
 11 -1 0 0 0 0  0.0000000000E+00  0.0000000000E+00  1.4701187842E+02  1.4701187842E+02  5.1099700000E-04  0.0000000000E+00  9.0000000000E+00
 -11 -1 0 0 0 0  0.0000000000E+00  0.0000000000E+00 -1.2720946236E+02  1.2720946236E+02  5.1099700000E-04  0.0000000000E+00  9.0000000000E+00
 16 1 1 2 0 0 -1.1862956658E+00  2.9888837154E+01 -6.1908553244E+01  6.8756227708E+01  0.0000000000E+00  0.0000000000E+00  9.0000000000E+00
 -16 1 1 2 0 0  2.8436340326E+01  3.4448180657E+01  2.6828708231E+01  5.2106450532E+01  0.0000000000E+00  0.0000000000E+00  9.0000000000E+00
 25 1 1 2 0 0 -2.7250044660E+01 -6.4337017811E+01  5.4882261080E+01  1.5335866254E+02  1.2500000000E+02  0.0000000000E+00  9.0000000000E+00
<weight name="sqme_prc">5.6496111864E-06</weight>
</event>
<event>
 5 1  1.0000000000E+00  3.4999999939E+02 -1.0000000000E+00  1.1780000000E-01
 11 -1 0 0 0 0  0.0000000000E+00  0.0000000000E+00  1.7500000000E+02  1.7500000000E+02  5.1099700000E-04  0.0000000000E+00  9.0000000000E+00
 -11 -1 0 0 0 0  0.0000000000E+00  0.0000000000E+00 -1.7499999939E+02  1.7499999939E+02  5.1099700000E-04  0.0000000000E+00  9.0000000000E+00
 14 1 1 2 0 0  2.1748906284E+01 -1.0336863779E+01 -5.4403639947E+01  5.9494720076E+01  0.0000000000E+00  0.0000000000E+00  9.0000000000E+00
 -14 1 1 2 0 0  1.0528445852E+02  4.9733766532E+00  5.1552427211E+00  1.0552785513E+02  0.0000000000E+00  0.0000000000E+00  9.0000000000E+00
 25 1 1 2 0 0 -1.2703336481E+02  5.3634871259E+00  4.9248397835E+01  1.8497742418E+02  1.2500000000E+02  0.0000000000E+00  9.0000000000E+00
<weight name="sqme_prc">1.0168881855E+22</weight>
</event>
<event>
 5 1  1.0000000000E+00  3.2780895928E+02 -1.0000000000E+00  1.1780000000E-01
 11 -1 0 0 0 0  0.0000000000E+00  0.0000000000E+00  1.6077229299E+02  1.6077229300E+02  5.1099700000E-04  0.0000000000E+00  9.0000000000E+00
 -11 -1 0 0 0 0  0.0000000000E+00  0.0000000000E+00 -1.6709768795E+02  1.6709768795E+02  5.1099700000E-04  0.0000000000E+00  9.0000000000E+00
 14 1 1 2 0 0 -9.1937163309E+00 -2.6646963458E+01 -8.2482706510E+01  8.7166403819E+01  0.0000000000E+00  0.0000000000E+00  9.0000000000E+00
 -14 1 1 2 0 0  2.4177479516E+01 -6.2425262750E+01 -3.6799830322E+00  6.7044807556E+01  0.0000000000E+00  0.0000000000E+00  9.0000000000E+00
 25 1 1 2 0 0 -1.4983763185E+01  8.9072226208E+01  7.9837294589E+01  1.7365876957E+02  1.2500000000E+02  0.0000000000E+00  9.0000000000E+00
<weight name="sqme_prc">7.0519878239E-05</weight>
</event>
<event>
 5 1  1.0000000000E+00  3.4997425460E+02 -1.0000000000E+00  1.1780000000E-01
 11 -1 0 0 0 0  0.0000000000E+00  0.0000000000E+00  1.7499954062E+02  1.7499954062E+02  5.1099700000E-04  0.0000000000E+00  9.0000000000E+00
 -11 -1 0 0 0 0  0.0000000000E+00  0.0000000000E+00 -1.7497471486E+02  1.7497471486E+02  5.1099700000E-04  0.0000000000E+00  9.0000000000E+00
 14 1 1 2 0 0  3.9325873895E+01  1.5640616030E+01  2.2626545700E+01  4.7990767838E+01  0.0000000000E+00  0.0000000000E+00  9.0000000000E+00
 -14 1 1 2 0 0  1.1780053487E+01  1.1160256351E+02 -3.0418479302E+01  1.1627203329E+02  0.0000000000E+00  0.0000000000E+00  9.0000000000E+00
 25 1 1 2 0 0 -5.1105927382E+01 -1.2724317954E+02  7.8167593622E+00  1.8571145436E+02  1.2500000000E+02  0.0000000000E+00  9.0000000000E+00
<weight name="sqme_prc">2.8704331083E+02</weight>
</event>
<event>
 5 1  1.0000000000E+00  3.4664403671E+02 -1.0000000000E+00  1.1780000000E-01
 11 -1 0 0 0 0  0.0000000000E+00  0.0000000000E+00  1.7500000000E+02  1.7500000000E+02  5.1099700000E-04  0.0000000000E+00  9.0000000000E+00
 -11 -1 0 0 0 0  0.0000000000E+00  0.0000000000E+00 -1.7166012599E+02  1.7166012599E+02  5.1099700000E-04  0.0000000000E+00  9.0000000000E+00
 12 1 1 2 0 0 -7.4794117435E+00 -1.0604107506E+01 -2.4443906193E+01  2.7674776350E+01  0.0000000000E+00  0.0000000000E+00  9.0000000000E+00
 -12 1 1 2 0 0 -1.2016216322E+02  5.7081570889E+01  6.9499127921E+00  1.3321243370E+02  0.0000000000E+00  0.0000000000E+00  9.0000000000E+00
 25 1 1 2 0 0  1.2764157497E+02 -4.6477463384E+01  2.0833867412E+01  1.8577291593E+02  1.2500000000E+02  0.0000000000E+00  9.0000000000E+00
<weight name="sqme_prc">7.5056579498E+03</weight>
</event>
<event>
 5 1  1.0000000000E+00  3.4142628939E+02 -1.0000000000E+00  1.1780000000E-01
 11 -1 0 0 0 0  0.0000000000E+00  0.0000000000E+00  1.6653160506E+02  1.6653160506E+02  5.1099700000E-04  0.0000000000E+00  9.0000000000E+00
 -11 -1 0 0 0 0  0.0000000000E+00  0.0000000000E+00 -1.7499968105E+02  1.7499968105E+02  5.1099700000E-04  0.0000000000E+00  9.0000000000E+00
 12 1 1 2 0 0  6.5278017425E+01 -4.1017128280E+00  2.4467166614E+01  6.9833271792E+01  0.0000000000E+00  0.0000000000E+00  9.0000000000E+00
 -12 1 1 2 0 0  3.7117273519E+01 -7.6942788197E+01 -3.1116686940E+01  9.0918275694E+01  0.0000000000E+00  0.0000000000E+00  9.0000000000E+00
 25 1 1 2 0 0 -1.0239529094E+02  8.1044501025E+01 -1.8185556591E+00  1.8077973863E+02  1.2500000000E+02  0.0000000000E+00  9.0000000000E+00
<weight name="sqme_prc">7.4337834412E-01</weight>
</event>
</LesHouchesEvents>
